TITLE     = "VTK Data"
VARIABLES = "X"
"Velocity_X"
ZONE T="Slice: Y=29.876 (region 1)"
 STRANDID=495, SOLUTIONTIME=772
 I=274, J=1, K=1, ZONETYPE=Ordered
 DATAPACKING=POINT
 DT=(SINGLE SINGLE )
 4.318351746E+01 1.503580322E+02
 4.318410492E+01 1.390576172E+02
 4.318417358E+01 1.376335449E+02
 4.318297195E+01 1.433263702E+02
 4.316947556E+01 2.070468445E+02
 4.316577911E+01 2.004312744E+02
 4.315284348E+01 1.760681458E+02
 4.314746857E+01 1.787272339E+02
 4.313470840E+01 1.862432098E+02
 4.312881088E+01 1.839210052E+02
 4.311599350E+01 1.788831940E+02
 4.310949326E+01 1.797167969E+02
 4.309603119E+01 1.814037170E+02
 4.308801651E+01 1.809842072E+02
 4.307465363E+01 1.800520477E+02
 4.306072998E+01 1.804999695E+02
 4.304844666E+01 1.807865601E+02
 4.303213882E+01 1.808542175E+02
 4.301898193E+01 1.809705963E+02
 4.300292206E+01 1.811253510E+02
 4.299469757E+01 1.812477264E+02
 4.297766113E+01 1.817642365E+02
 4.296689606E+01 1.820891418E+02
 4.294671249E+01 1.827393494E+02
 4.293813705E+01 1.829834137E+02
 4.291472626E+01 1.837175446E+02
 4.291075897E+01 1.838311920E+02
 4.289623260E+01 1.844000854E+02
 4.288404083E+01 1.848810730E+02
 4.287947845E+01 1.850540924E+02
 4.285618210E+01 1.859435730E+02
 4.283288574E+01 1.868927612E+02
 4.282603073E+01 1.871910706E+02
 4.281579208E+01 1.876512299E+02
 4.279502106E+01 1.886157532E+02
 4.275711060E+01 1.903018799E+02
 4.275522995E+01 1.903903656E+02
 4.275267029E+01 1.905107727E+02
 4.271489334E+01 1.922767181E+02
 4.268023300E+01 1.941094818E+02
 4.267572021E+01 1.943447266E+02
 4.267220306E+01 1.945267334E+02
 4.263126373E+01 1.966071625E+02
 4.260294342E+01 1.980415497E+02
 4.259016800E+01 1.986742859E+02
 4.256225967E+01 2.001761322E+02
 4.253586960E+01 2.016440582E+02
 4.251356888E+01 2.028464203E+02
 4.247129440E+01 2.051451111E+02
 4.246138763E+01 2.057105713E+02
 4.242308044E+01 2.078682098E+02
 4.240776443E+01 2.087304840E+02
 4.240433502E+01 2.089256592E+02
 4.234716415E+01 2.121157074E+02
 4.234018707E+01 2.125097809E+02
 4.232567978E+01 2.133478699E+02
 4.228997803E+01 2.154207916E+02
 4.225521469E+01 2.173811798E+02
 4.223492050E+01 2.185235596E+02
 4.222509766E+01 2.190823975E+02
 4.214738846E+01 2.233830566E+02
 4.214569092E+01 2.234795532E+02
 4.214278030E+01 2.236281586E+02
 4.206931686E+01 2.274187622E+02
 4.203247452E+01 2.293923187E+02
 4.199660110E+01 2.312438965E+02
 4.197247314E+01 2.324935150E+02
 4.194577789E+01 2.338880768E+02
 4.190911484E+01 2.356345978E+02
 4.186329269E+01 2.376139526E+02
 4.179875565E+01 2.403574982E+02
 4.177409363E+01 2.413792877E+02
 4.170067596E+01 2.436803894E+02
 4.165143585E+01 2.453601685E+02
 4.155273819E+01 2.485568542E+02
 4.153257751E+01 2.492144012E+02
 4.142456436E+01 2.519171600E+02
 4.142417145E+01 2.519268799E+02
 4.141728973E+01 2.520526123E+02
 4.132799530E+01 2.536763306E+02
 4.132315063E+01 2.537277679E+02
 4.122549820E+01 2.547218170E+02
 4.122001648E+01 2.547547913E+02
 4.120581818E+01 2.548634338E+02
 4.113801193E+01 2.554920502E+02
 4.111267090E+01 2.555444946E+02
 4.106145096E+01 2.555288391E+02
 4.103232193E+01 2.554833374E+02
 4.096944809E+01 2.553844299E+02
 4.095133972E+01 2.553551483E+02
 4.094251633E+01 2.552691193E+02
 4.087437820E+01 2.549147797E+02
 4.084107590E+01 2.546372375E+02
 4.079921722E+01 2.543316498E+02
 4.075824356E+01 2.538785095E+02
 4.073498154E+01 2.535705414E+02
 4.069063568E+01 2.527491608E+02
 4.064789963E+01 2.520866547E+02
 4.061629486E+01 2.515648193E+02
 4.057907867E+01 2.509362335E+02
 4.056380081E+01 2.505620117E+02
 4.052443695E+01 2.495591888E+02
 4.050648117E+01 2.490356140E+02
 4.045996094E+01 2.477293701E+02
 4.044639206E+01 2.473195190E+02
 4.039056396E+01 2.456888428E+02
 4.038469696E+01 2.454900970E+02
 4.032473373E+01 2.434395294E+02
 4.032443619E+01 2.434281616E+02
 4.032000732E+01 2.432610016E+02
 4.026585007E+01 2.412127075E+02
 4.026216507E+01 2.410775299E+02
 4.021009827E+01 2.386122742E+02
 4.020571136E+01 2.384049225E+02
 4.019672012E+01 2.378956909E+02
 4.015149689E+01 2.353182678E+02
 4.011034012E+01 2.321749878E+02
 4.010610580E+01 2.318520508E+02
 4.007942581E+01 2.286655121E+02
 4.006823349E+01 2.273507843E+02
 4.005371475E+01 2.244286804E+02
 4.003681564E+01 2.211082001E+02
 4.003044891E+01 2.188572388E+02
 4.001088715E+01 2.121205902E+02
 4.000971985E+01 2.113929443E+02
 4.000359344E+01 2.076646271E+02
 3.999197006E+01 2.005490417E+02
 3.998973083E+01 1.992002106E+02
 3.997682571E+01 1.861874390E+02
 3.997272873E+01 1.821774750E+02
 3.996402740E+01 1.682282715E+02
 3.995929337E+01 1.606151733E+02
 3.995365524E+01 1.453655243E+02
 3.994923782E+01 1.351576080E+02
 3.994579697E+01 1.211638870E+02
 3.994237137E+01 1.074260712E+02
 3.994028091E+01 9.567681122E+01
 3.993849182E+01 8.642089844E+01
 3.993776321E+01 8.331041718E+01
 3.993715668E+01 8.083111572E+01
 3.993750381E+01 8.679015350E+01
 3.993790054E+01 9.362007904E+01
 3.993961716E+01 1.085771637E+02
 3.994133759E+01 1.234342728E+02
 3.994511795E+01 1.453755951E+02
 3.994796371E+01 1.617490997E+02
 3.995472717E+01 1.867210693E+02
 3.995785904E+01 1.982139893E+02
 3.996919632E+01 2.224143524E+02
 3.997127533E+01 2.268284912E+02
 3.998347473E+01 2.401613617E+02
 3.998842239E+01 2.455781555E+02
 3.998988724E+01 2.463776398E+02
 4.000967407E+01 2.570668030E+02
 4.001966095E+01 2.598770142E+02
 4.003562927E+01 2.643136597E+02
 4.006157684E+01 2.682040405E+02
 4.006703568E+01 2.690127258E+02
 4.007815552E+01 2.699529724E+02
 4.010484314E+01 2.722256165E+02
 4.012895966E+01 2.735195923E+02
 4.015014648E+01 2.746416016E+02
 4.017359924E+01 2.756089783E+02
 4.020422745E+01 2.768692322E+02
 4.024048615E+01 2.780763855E+02
 4.026179504E+01 2.787889709E+02
 4.029634857E+01 2.797330017E+02
 4.032456589E+01 2.805958862E+02
 4.035302353E+01 2.812646484E+02
 4.039381790E+01 2.822865295E+02
 4.041330719E+01 2.828122559E+02
 4.046300507E+01 2.840430298E+02
 4.047077942E+01 2.842103882E+02
 4.051430893E+01 2.849289246E+02
 4.053147507E+01 2.852208862E+02
 4.053438187E+01 2.852699585E+02
 4.059530258E+01 2.861829834E+02
 4.060750961E+01 2.864091187E+02
 4.066782761E+01 2.876364136E+02
 4.068138504E+01 2.879037476E+02
 4.070606995E+01 2.883562622E+02
 4.074272537E+01 2.889828186E+02
 4.079442978E+01 2.899509277E+02
 4.082155609E+01 2.905420227E+02
 4.088338089E+01 2.916791077E+02
 4.089976120E+01 2.919835205E+02
 4.092190933E+01 2.923384705E+02
 4.098462296E+01 2.934473572E+02
 4.103202057E+01 2.947376709E+02
 4.104508972E+01 2.950803833E+02
 4.109816360E+01 2.964089661E+02
 4.112184906E+01 2.968951111E+02
 4.117265320E+01 2.977895813E+02
 4.121557617E+01 2.988754883E+02
 4.126398468E+01 2.999789429E+02
 4.131100464E+01 3.010299377E+02
 4.139201736E+01 3.027943420E+02
 4.142778397E+01 3.035632935E+02
 4.146936417E+01 3.046729126E+02
 4.152964401E+01 3.062379456E+02
 4.161251450E+01 3.072679138E+02
 4.163238144E+01 3.074262085E+02
 4.165464783E+01 3.069630127E+02
 4.173225403E+01 3.062633362E+02
 4.181035233E+01 3.022908325E+02
 4.183366013E+01 3.011766968E+02
 4.184859467E+01 3.003041992E+02
 4.195411301E+01 2.930019836E+02
 4.197466278E+01 2.914932861E+02
 4.199731827E+01 2.902393188E+02
 4.205657959E+01 2.877533569E+02
 4.207494736E+01 2.874121704E+02
 4.211399841E+01 2.871456909E+02
 4.213209152E+01 2.869815979E+02
 4.216160583E+01 2.866041870E+02
 4.220015717E+01 2.854994812E+02
 4.222386551E+01 2.849296570E+02
 4.225589752E+01 2.834908142E+02
 4.228929520E+01 2.820113831E+02
 4.230656433E+01 2.809961853E+02
 4.235623932E+01 2.782551880E+02
 4.237200165E+01 2.773859863E+02
 4.239707947E+01 2.759569702E+02
 4.241985321E+01 2.747011108E+02
 4.245409012E+01 2.728353271E+02
 4.246588898E+01 2.722046509E+02
 4.247091293E+01 2.719178772E+02
 4.251419830E+01 2.695386047E+02
 4.254746628E+01 2.677969360E+02
 4.256662750E+01 2.668036194E+02
 4.258028412E+01 2.661157837E+02
 4.262331009E+01 2.640810547E+02
 4.263310242E+01 2.636145630E+02
 4.266534042E+01 2.621453552E+02
 4.267763519E+01 2.615949402E+02
 4.268187714E+01 2.614309692E+02
 4.272162628E+01 2.598731384E+02
 4.273389816E+01 2.594866028E+02
 4.275983810E+01 2.586749573E+02
 4.278042984E+01 2.581637878E+02
 4.279840088E+01 2.577124634E+02
 4.282064438E+01 2.572811584E+02
 4.283835602E+01 2.569409180E+02
 4.284926987E+01 2.567766724E+02
 4.286418915E+01 2.566198730E+02
 4.287498093E+01 2.565057678E+02
 4.288795090E+01 2.563978577E+02
 4.289996719E+01 2.562899475E+02
 4.290961838E+01 2.561775513E+02
 4.292816162E+01 2.559590607E+02
 4.294747162E+01 2.557949524E+02
 4.295452118E+01 2.557553864E+02
 4.295942688E+01 2.556877747E+02
 4.297915649E+01 2.554829559E+02
 4.299451828E+01 2.551205139E+02
 4.300394440E+01 2.549279938E+02
 4.302380753E+01 2.540371094E+02
 4.303025818E+01 2.537415619E+02
 4.304613876E+01 2.531111755E+02
 4.305352783E+01 2.527933044E+02
 4.305667877E+01 2.525385742E+02
 4.307524872E+01 2.508515320E+02
 4.308255386E+01 2.504150085E+02
 4.309702301E+01 2.501120758E+02
 4.310522079E+01 2.489583130E+02
 4.311879730E+01 2.446665344E+02
 4.312026978E+01 2.448161163E+02
 4.313444901E+01 2.486672516E+02
 4.313845825E+01 2.458539429E+02
 4.315204620E+01 2.363499146E+02
 4.315773392E+01 2.422317657E+02
 4.316841125E+01 2.531802216E+02
 4.317618561E+01 2.011307678E+02
 4.318351746E+01 1.503580322E+02
