TITLE     = "VTK Data"
VARIABLES = "X"
"Velocity_X"
ZONE T="Slice: Y=0.974 (region 1)"
 STRANDID=317, SOLUTIONTIME=772
 I=792, J=1, K=1, ZONETYPE=Ordered
 DATAPACKING=POINT
 DT=(SINGLE SINGLE )
 6.964266205E+01 2.278182526E+02
 6.969983673E+01 2.277923737E+02
 6.972265625E+01 2.277184143E+02
 6.976299286E+01 2.276598053E+02
 6.979897308E+01 2.275699768E+02
 6.980790710E+01 2.275293274E+02
 6.981791687E+01 2.274717712E+02
 6.984453583E+01 2.273866577E+02
 6.986997986E+01 2.272694702E+02
 6.987293243E+01 2.272608185E+02
 6.989337921E+01 2.271682739E+02
 6.989355469E+01 2.271673431E+02
 6.990425873E+01 2.270852814E+02
 6.990578461E+01 2.270380707E+02
 6.990824890E+01 2.269227142E+02
 6.990842438E+01 2.267554169E+02
 6.990856171E+01 2.266274567E+02
 6.990764618E+01 2.261803131E+02
 6.990731812E+01 2.260405731E+02
 6.990688324E+01 2.259375916E+02
 6.990323639E+01 2.251898193E+02
 6.989839172E+01 2.247248383E+02
 6.989349365E+01 2.243356323E+02
 6.988352966E+01 2.239576721E+02
 6.987110901E+01 2.236509399E+02
 6.986169434E+01 2.234984131E+02
 6.985298920E+01 2.233835602E+02
 6.982625580E+01 2.232510529E+02
 6.981991577E+01 2.232517853E+02
 6.981021118E+01 2.233794556E+02
 6.978995514E+01 2.234732208E+02
 6.976379395E+01 2.232770996E+02
 6.975070953E+01 2.231564331E+02
 6.970853424E+01 2.229034882E+02
 6.968379974E+01 2.230725555E+02
 6.964504242E+01 2.235715027E+02
 6.962414551E+01 2.237713470E+02
 6.959798431E+01 2.239562683E+02
 6.955715942E+01 2.240603333E+02
 6.953302765E+01 2.241010590E+02
 6.947183990E+01 2.244544220E+02
 6.941352081E+01 2.240349121E+02
 6.936064148E+01 2.238350067E+02
 6.928234863E+01 2.248182373E+02
 6.920549774E+01 2.256788483E+02
 6.917672729E+01 2.267184753E+02
 6.898973083E+01 2.244791718E+02
 6.898687744E+01 2.244614410E+02
 6.898619080E+01 2.244591370E+02
 6.875362396E+01 2.239977722E+02
 6.863143158E+01 2.268109741E+02
 6.850350952E+01 2.268695831E+02
 6.840376282E+01 2.270183868E+02
 6.832723236E+01 2.259725647E+02
 6.799886322E+01 2.239560699E+02
 6.792582703E+01 2.232038574E+02
 6.753107452E+01 2.225783997E+02
 6.752346802E+01 2.225246124E+02
 6.749416351E+01 2.224222565E+02
 6.711598206E+01 2.210295105E+02
 6.704812622E+01 2.209025726E+02
 6.668287659E+01 2.197857513E+02
 6.655393982E+01 2.198483124E+02
 6.622968292E+01 2.201454163E+02
 6.605453491E+01 2.202596741E+02
 6.577677917E+01 2.208598022E+02
 6.553353119E+01 2.220437622E+02
 6.538346100E+01 2.231474304E+02
 6.515107727E+01 2.240962219E+02
 6.511043549E+01 2.242670288E+02
 6.505509186E+01 2.240968018E+02
 6.476579285E+01 2.229596710E+02
 6.467047882E+01 2.231172638E+02
 6.456520844E+01 2.238032684E+02
 6.431862640E+01 2.247029266E+02
 6.420489502E+01 2.250445404E+02
 6.408463287E+01 2.250130920E+02
 6.382476044E+01 2.259339905E+02
 6.369936371E+01 2.269130402E+02
 6.355554962E+01 2.272502289E+02
 6.334509277E+01 2.278016052E+02
 6.313760757E+01 2.274249725E+02
 6.288213348E+01 2.276174774E+02
 6.263392258E+01 2.280016174E+02
 6.240097809E+01 2.283688660E+02
 6.215214157E+01 2.284160156E+02
 6.191697693E+01 2.286456604E+02
 6.167015839E+01 2.288643951E+02
 6.143278503E+01 2.291733093E+02
 6.118799591E+01 2.293993073E+02
 6.094836044E+01 2.297182770E+02
 6.070551300E+01 2.299718933E+02
 6.046363449E+01 2.302835236E+02
 6.022267151E+01 2.305611877E+02
 5.997864151E+01 2.309276886E+02
 5.973948669E+01 2.312841187E+02
 5.949342728E+01 2.317145081E+02
 5.925596237E+01 2.321379395E+02
 5.900804901E+01 2.326423950E+02
 5.877211380E+01 2.331313477E+02
 5.852254486E+01 2.337076416E+02
 5.828789520E+01 2.342775879E+02
 5.803691101E+01 2.349562683E+02
 5.780333710E+01 2.355989380E+02
 5.755118942E+01 2.363670807E+02
 5.731850052E+01 2.369985809E+02
 5.706540680E+01 2.377682495E+02
 5.683332443E+01 2.384364929E+02
 5.657945251E+01 2.393326569E+02
 5.634796524E+01 2.402364349E+02
 5.609328461E+01 2.414553833E+02
 5.586248779E+01 2.428692474E+02
 5.560696793E+01 2.448020172E+02
 5.537702179E+01 2.471510925E+02
 5.512063217E+01 2.502005157E+02
 5.489149475E+01 2.531855164E+02
 5.463462830E+01 2.568739319E+02
 5.440628433E+01 2.594647827E+02
 5.414933777E+01 2.618586731E+02
 5.392030334E+01 2.626516418E+02
 5.366383743E+01 2.627909546E+02
 5.339974213E+01 2.623841553E+02
 5.321034241E+01 2.618258667E+02
 5.290700912E+01 2.607541504E+02
 5.280112076E+01 2.605198059E+02
 5.273139191E+01 2.596368713E+02
 5.240763092E+01 2.552184143E+02
 5.224099350E+01 2.525801544E+02
 5.195223999E+01 2.485585175E+02
 5.170346832E+01 2.462954254E+02
 5.149248123E+01 2.447575531E+02
 5.119640732E+01 2.431436157E+02
 5.102941132E+01 2.422976227E+02
 5.068750763E+01 2.411766357E+02
 5.058003998E+01 2.408431091E+02
 5.020986557E+01 2.398030090E+02
 5.015738678E+01 2.396619415E+02
 4.987274933E+01 2.389616852E+02
 4.976789093E+01 2.387027588E+02
 4.974779510E+01 2.386869812E+02
 4.940678406E+01 2.385338745E+02
 4.931201172E+01 2.384829254E+02
 4.908829117E+01 2.384663086E+02
 4.877521896E+01 2.377901001E+02
 4.876585770E+01 2.377724152E+02
 4.875781631E+01 2.377631531E+02
 4.845546722E+01 2.373521881E+02
 4.819841385E+01 2.371175995E+02
 4.815443420E+01 2.370742035E+02
 4.811324692E+01 2.370277557E+02
 4.783424759E+01 2.366665649E+02
 4.757226181E+01 2.361919556E+02
 4.750472260E+01 2.360682220E+02
 4.737629700E+01 2.358113861E+02
 4.718985748E+01 2.354016266E+02
 4.711468887E+01 2.353061218E+02
 4.681184006E+01 2.349504700E+02
 4.664192963E+01 2.348170776E+02
 4.639836121E+01 2.347421265E+02
 4.615167999E+01 2.343653107E+02
 4.595839310E+01 2.339567108E+02
 4.565496826E+01 2.335139160E+02
 4.548889542E+01 2.332855988E+02
 4.517932129E+01 2.328194733E+02
 4.502351379E+01 2.325120850E+02
 4.470897293E+01 2.318536224E+02
 4.455124664E+01 2.316023102E+02
 4.423695755E+01 2.307797241E+02
 4.407386398E+01 2.304014740E+02
 4.378768158E+01 2.299345398E+02
 4.368927383E+01 2.298750305E+02
 4.342790604E+01 2.297688141E+02
 4.339408875E+01 2.296732788E+02
 4.314188766E+01 2.282057037E+02
 4.311241913E+01 2.280269165E+02
 4.287044907E+01 2.270263824E+02
 4.283928299E+01 2.268736572E+02
 4.276690674E+01 2.262724152E+02
 4.262625504E+01 2.253934326E+02
 4.256093979E+01 2.247163544E+02
 4.242179871E+01 2.237847595E+02
 4.229958725E+01 2.236754456E+02
 4.226844406E+01 2.235130768E+02
 4.213036728E+01 2.218148041E+02
 4.209955597E+01 2.213261871E+02
 4.206698608E+01 2.209583893E+02
 4.194199371E+01 2.197698975E+02
 4.190830231E+01 2.194040222E+02
 4.184747314E+01 2.188050232E+02
 4.177510071E+01 2.174653625E+02
 4.176503372E+01 2.172707672E+02
 4.172742844E+01 2.165576935E+02
 4.165821457E+01 2.152403870E+02
 4.164628601E+01 2.150894012E+02
 4.161244965E+01 2.146125488E+02
 4.153428650E+01 2.134443970E+02
 4.150932693E+01 2.128830566E+02
 4.144073105E+01 2.112766724E+02
 4.136227036E+01 2.096213226E+02
 4.132259369E+01 2.090591278E+02
 4.121124649E+01 2.073070221E+02
 4.118312454E+01 2.071177063E+02
 4.106801605E+01 2.031894684E+02
 4.101837158E+01 2.019801331E+02
 4.092201233E+01 2.008505249E+02
 4.081852341E+01 1.998580475E+02
 4.076454544E+01 2.016648712E+02
 4.067978668E+01 2.037683563E+02
 4.062899780E+01 2.052382812E+02
 4.047851562E+01 2.099691925E+02
 4.044849777E+01 2.103203430E+02
 4.024331665E+01 2.142121735E+02
 4.021080780E+01 2.149583588E+02
 4.016087723E+01 2.161941528E+02
 3.997923279E+01 2.193905029E+02
 3.977718353E+01 2.232440338E+02
 3.974751663E+01 2.236461487E+02
 3.956919098E+01 2.262093811E+02
 3.948028564E+01 2.274963226E+02
 3.946890640E+01 2.276820526E+02
 3.913745880E+01 2.317497864E+02
 3.913254166E+01 2.318146515E+02
 3.912500763E+01 2.318986359E+02
 3.877954102E+01 2.355148773E+02
 3.855792999E+01 2.377831268E+02
 3.843995667E+01 2.388834381E+02
 3.809991074E+01 2.417117004E+02
 3.808488464E+01 2.418076019E+02
 3.798329544E+01 2.423886261E+02
 3.766603851E+01 2.441174469E+02
 3.762778854E+01 2.442792664E+02
 3.755421829E+01 2.446973572E+02
 3.720132446E+01 2.465086975E+02
 3.690726471E+01 2.461391449E+02
 3.683186340E+01 2.460072937E+02
 3.676599121E+01 2.454375000E+02
 3.643052292E+01 2.427621002E+02
 3.612654495E+01 2.401816559E+02
 3.599369431E+01 2.391079102E+02
 3.559613800E+01 2.364043579E+02
 3.558782959E+01 2.363572845E+02
 3.552932739E+01 2.360877075E+02
 3.520366287E+01 2.346023865E+02
 3.516614151E+01 2.344290314E+02
 3.485411835E+01 2.333737946E+02
 3.472994232E+01 2.330288239E+02
 3.448664856E+01 2.324056091E+02
 3.427140427E+01 2.318590393E+02
 3.410838318E+01 2.315655670E+02
 3.386984634E+01 2.311657715E+02
 3.367506027E+01 2.309732056E+02
 3.349505615E+01 2.308165894E+02
 3.333146286E+01 2.307926941E+02
 3.321681976E+01 2.307741547E+02
 3.307255936E+01 2.308402710E+02
 3.293546295E+01 2.308977203E+02
 3.278373718E+01 2.310720367E+02
 3.266351700E+01 2.311929779E+02
 3.258781052E+01 2.313206635E+02
 3.236519623E+01 2.316879578E+02
 3.215036774E+01 2.321736603E+02
 3.212209320E+01 2.322358704E+02
 3.187777138E+01 2.328436584E+02
 3.180458450E+01 2.330430298E+02
 3.156843567E+01 2.337456970E+02
 3.136104965E+01 2.344024658E+02
 3.123643494E+01 2.348198395E+02
 3.105662346E+01 2.354792328E+02
 3.089038277E+01 2.360769958E+02
 3.075670242E+01 2.365720062E+02
 3.054733658E+01 2.373509827E+02
 3.031483269E+01 2.382697144E+02
 3.018035507E+01 2.388569031E+02
 2.999248314E+01 2.397111511E+02
 2.976635551E+01 2.406910706E+02
 2.961483574E+01 2.413342438E+02
 2.944463921E+01 2.420955811E+02
 2.923866463E+01 2.429602356E+02
 2.910589981E+01 2.435597534E+02
 2.884058762E+01 2.446714172E+02
 2.873349571E+01 2.451141815E+02
 2.850905800E+01 2.459809875E+02
 2.844555473E+01 2.462324066E+02
 2.840544891E+01 2.463805847E+02
 2.815845871E+01 2.473606415E+02
 2.789503098E+01 2.482687073E+02
 2.784143639E+01 2.484705505E+02
 2.780322266E+01 2.486043396E+02
 2.755611992E+01 2.494149017E+02
 2.751833153E+01 2.495353699E+02
 2.732691002E+01 2.501364899E+02
 2.712909508E+01 2.506250305E+02
 2.705457687E+01 2.508188324E+02
 2.681634712E+01 2.513195343E+02
 2.677401924E+01 2.514196777E+02
 2.676493073E+01 2.514359741E+02
 2.661162758E+01 2.516294403E+02
 2.641659164E+01 2.518923340E+02
 2.640293503E+01 2.519036102E+02
 2.628989792E+01 2.519001617E+02
 2.600377464E+01 2.519384918E+02
 2.597559738E+01 2.519328308E+02
 2.593734741E+01 2.518854980E+02
 2.556910706E+01 2.515372620E+02
 2.541984558E+01 2.512890472E+02
 2.515983772E+01 2.506705170E+02
 2.501450920E+01 2.503816223E+02
 2.484788322E+01 2.498710327E+02
 2.468021965E+01 2.493773041E+02
 2.439362717E+01 2.484200287E+02
 2.434453201E+01 2.482684784E+02
 2.432860947E+01 2.482196808E+02
 2.394807625E+01 2.471362000E+02
 2.382813072E+01 2.468496399E+02
 2.359830284E+01 2.464643555E+02
 2.338184738E+01 2.460901947E+02
 2.317423248E+01 2.461779633E+02
 2.304869080E+01 2.462547302E+02
 2.269602203E+01 2.477034607E+02
 2.263464546E+01 2.478657684E+02
 2.257356644E+01 2.481065063E+02
 2.221026802E+01 2.500780487E+02
 2.209582520E+01 2.508394012E+02
 2.187839127E+01 2.524191437E+02
 2.171874237E+01 2.535858612E+02
 2.146578407E+01 2.557640991E+02
 2.125428963E+01 2.566801758E+02
 2.097406578E+01 2.550734100E+02
 2.092691040E+01 2.545128326E+02
 2.088515282E+01 2.536685028E+02
 2.057295799E+01 2.468728180E+02
 2.038151169E+01 2.416150360E+02
 2.024067497E+01 2.371365356E+02
 2.006641579E+01 2.318785400E+02
 1.980780602E+01 2.245124207E+02
 1.980384636E+01 2.243812561E+02
 1.978329277E+01 2.237496033E+02
 1.950251579E+01 2.150600128E+02
 1.946611023E+01 2.142448578E+02
 1.914278793E+01 2.033374176E+02
 1.907022476E+01 2.013505707E+02
 1.879419327E+01 1.962807465E+02
 1.864716911E+01 1.936190643E+02
 1.841741753E+01 1.961918640E+02
 1.818524361E+01 1.995854645E+02
 1.802374268E+01 2.024002380E+02
 1.774543762E+01 2.095250549E+02
 1.760036087E+01 2.111350403E+02
 1.731478500E+01 2.151360474E+02
 1.714411545E+01 2.167703705E+02
 1.687650299E+01 2.194477997E+02
 1.660122299E+01 2.216321106E+02
 1.639047813E+01 2.235240936E+02
 1.611438370E+01 2.252357178E+02
 1.592611980E+01 2.261893463E+02
 1.560261917E+01 2.277770996E+02
 1.541420364E+01 2.287705994E+02
 1.511978531E+01 2.301507721E+02
 1.491001606E+01 2.309446411E+02
 1.461562538E+01 2.319546814E+02
 1.440798473E+01 2.325726929E+02
 1.410651493E+01 2.334752960E+02
 1.391562366E+01 2.342176514E+02
 1.363552952E+01 2.351767426E+02
 1.340392017E+01 2.359807281E+02
 1.315291023E+01 2.370007935E+02
 1.286117363E+01 2.381277771E+02
 1.273344898E+01 2.385039520E+02
 1.246323395E+01 2.391255951E+02
 1.205807590E+01 2.404306641E+02
 1.202178669E+01 2.405655670E+02
 1.198525620E+01 2.407564850E+02
 1.163351250E+01 2.426273041E+02
 1.125759125E+01 2.447327271E+02
 1.125508785E+01 2.447482758E+02
 1.125256348E+01 2.447675781E+02
 1.087276745E+01 2.478467102E+02
 1.063805962E+01 2.494497375E+02
 1.043449116E+01 2.506065216E+02
 1.014883041E+01 2.520355682E+02
 9.976509094E+00 2.529034576E+02
 9.657585144E+00 2.545485077E+02
 9.486375809E+00 2.553688965E+02
 9.174019814E+00 2.564678040E+02
 8.989135742E+00 2.569215698E+02
 8.680680275E+00 2.575840454E+02
 8.493235588E+00 2.577985535E+02
 8.184006691E+00 2.578056335E+02
 7.999444962E+00 2.574088745E+02
 7.688800335E+00 2.563460999E+02
 7.492692947E+00 2.559008179E+02
 7.161748886E+00 2.557009277E+02
 6.971102715E+00 2.557022095E+02
 6.762127399E+00 2.545690765E+02
 6.565427303E+00 2.524884186E+02
 6.276703835E+00 2.503897247E+02
 6.087110043E+00 2.492331848E+02
 5.678285599E+00 2.480355835E+02
 5.659094810E+00 2.479532776E+02
 5.616444588E+00 2.474418030E+02
 5.286252499E+00 2.435617676E+02
 4.906156540E+00 2.382917633E+02
 4.819678783E+00 2.370572968E+02
 4.796742439E+00 2.367747803E+02
 4.772758961E+00 2.366012268E+02
 4.457454681E+00 2.332574463E+02
 4.403757572E+00 2.332307129E+02
 4.119816303E+00 2.342233276E+02
 3.785578728E+00 2.303776855E+02
 3.731966257E+00 2.299752808E+02
 3.688259602E+00 2.296548920E+02
 3.374620676E+00 2.275232544E+02
 3.302536488E+00 2.276160278E+02
 3.082851648E+00 2.267260590E+02
 2.783288002E+00 2.228035278E+02
 2.728706837E+00 2.221806488E+02
 2.698794603E+00 2.215716400E+02
 2.376186132E+00 2.144928589E+02
 2.294806719E+00 2.126412964E+02
 2.108467579E+00 2.085509644E+02
 1.985167861E+00 2.063063812E+02
 1.892933011E+00 2.034893951E+02
 1.726322651E+00 1.983009796E+02
 1.482237220E+00 1.877804413E+02
 1.476957917E+00 1.875476990E+02
 1.473127365E+00 1.873843994E+02
 1.293774486E+00 1.812155151E+02
 1.211779952E+00 1.762070312E+02
 1.201503873E+00 1.756132355E+02
 1.246565580E+00 1.733228760E+02
 1.251884341E+00 1.730550385E+02
 1.379877687E+00 1.744663086E+02
 1.461621642E+00 1.729061127E+02
 1.489841104E+00 1.727724915E+02
 1.502959251E+00 1.728584595E+02
 1.615979195E+00 1.737850037E+02
 1.644206643E+00 1.737031097E+02
 1.686504960E+00 1.726383514E+02
 1.751770854E+00 1.721265259E+02
 1.811147809E+00 1.715799866E+02
 1.859627485E+00 1.713172302E+02
 1.888942480E+00 1.690529327E+02
 1.969125986E+00 1.669835663E+02
 2.010167122E+00 1.645555267E+02
 2.067376137E+00 1.652752075E+02
 2.105813026E+00 1.682462463E+02
 2.126103640E+00 1.707168427E+02
 2.167621613E+00 1.769211273E+02
 2.220512390E+00 1.805924988E+02
 2.250584364E+00 1.835077667E+02
 2.284756899E+00 1.866963501E+02
 2.344291449E+00 1.893940430E+02
 2.422708511E+00 1.926911621E+02
 2.433936357E+00 1.929782867E+02
 2.492885113E+00 1.951201172E+02
 2.525383234E+00 1.962767792E+02
 2.531106472E+00 1.965542603E+02
 2.610933065E+00 1.989930115E+02
 2.632825136E+00 1.995175323E+02
 2.693272352E+00 2.013945312E+02
 2.730701208E+00 2.029446106E+02
 2.755683422E+00 2.037460938E+02
 2.805238247E+00 2.059830322E+02
 2.832216024E+00 2.069190369E+02
 2.893764257E+00 2.095499573E+02
 2.907029390E+00 2.100822601E+02
 2.910091162E+00 2.102213440E+02
 2.913551807E+00 2.104215240E+02
 2.972432852E+00 2.144304962E+02
 2.974036455E+00 2.145971222E+02
 3.014775276E+00 2.182881165E+02
 3.060190439E+00 2.215799713E+02
 3.082851648E+00 2.232351379E+02
 3.105658054E+00 2.252113800E+02
 3.167762518E+00 2.301743317E+02
 3.215378523E+00 2.325730438E+02
 3.273062468E+00 2.352369385E+02
 3.336072922E+00 2.371068268E+02
 3.392652988E+00 2.385272980E+02
 3.458353043E+00 2.393993378E+02
 3.531574249E+00 2.390785675E+02
 3.585573673E+00 2.389206543E+02
 3.630530834E+00 2.393974304E+02
 3.758486986E+00 2.402406158E+02
 3.789687395E+00 2.403580322E+02
 3.818576336E+00 2.404332428E+02
 3.975041389E+00 2.402254486E+02
 4.059068680E+00 2.405079956E+02
 4.159388065E+00 2.391601257E+02
 4.222248077E+00 2.377845764E+02
 4.440876961E+00 2.367497559E+02
 4.457454681E+00 2.365705261E+02
 4.596836090E+00 2.376915894E+02
 4.693262577E+00 2.384408722E+02
 4.704324245E+00 2.385187531E+02
 5.079576969E+00 2.409031219E+02
 5.210064411E+00 2.419377747E+02
 5.411789894E+00 2.433761749E+02
 5.604363441E+00 2.458540649E+02
 5.622019768E+00 2.458813782E+02
 5.828140736E+00 2.448175354E+02
 6.011008263E+00 2.450304718E+02
 6.278660774E+00 2.457264709E+02
 6.529405117E+00 2.473918762E+02
 6.716856956E+00 2.487506561E+02
 7.011421204E+00 2.502018890E+02
 7.197606087E+00 2.509488525E+02
 7.500571251E+00 2.523775330E+02
 7.691492081E+00 2.532441559E+02
 7.991937160E+00 2.545300446E+02
 8.185875893E+00 2.553468475E+02
 8.480584145E+00 2.565511780E+02
 8.676540375E+00 2.571831055E+02
 8.973313332E+00 2.582864380E+02
 9.170189857E+00 2.591395264E+02
 9.472739220E+00 2.602121582E+02
 9.664091110E+00 2.607236328E+02
 9.961429596E+00 2.616878052E+02
 1.015017700E+01 2.624940186E+02
 1.042028522E+01 2.634387207E+02
 1.063089466E+01 2.637930908E+02
 1.084307671E+01 2.639924011E+02
 1.121205902E+01 2.631993713E+02
 1.123270130E+01 2.631676331E+02
 1.125234222E+01 2.630680237E+02
 1.161809063E+01 2.611216736E+02
 1.199214077E+01 2.564794617E+02
 1.202178669E+01 2.561125183E+02
 1.204895115E+01 2.556809082E+02
 1.241458225E+01 2.497346344E+02
 1.279408646E+01 2.454414215E+02
 1.279421139E+01 2.454400482E+02
 1.279434109E+01 2.454394073E+02
 1.319021511E+01 2.437253113E+02
 1.341444874E+01 2.432475739E+02
 1.362418842E+01 2.427508850E+02
 1.390513706E+01 2.418754120E+02
 1.409134007E+01 2.412930603E+02
 1.439887714E+01 2.405291290E+02
 1.459845543E+01 2.400839539E+02
 1.489958954E+01 2.395861053E+02
 1.510605431E+01 2.392931824E+02
 1.540228271E+01 2.389364319E+02
 1.561608315E+01 2.387143250E+02
 1.591046715E+01 2.384389191E+02
 1.612704086E+01 2.382399597E+02
 1.641841507E+01 2.380265656E+02
 1.663328743E+01 2.378969116E+02
 1.692712784E+01 2.378092957E+02
 1.714143562E+01 2.377742157E+02
 1.743917274E+01 2.377650604E+02
 1.764753914E+01 2.378161621E+02
 1.794692802E+01 2.378858337E+02
 1.813790703E+01 2.377844543E+02
 1.844564629E+01 2.378416595E+02
 1.862408638E+01 2.379686279E+02
 1.891634941E+01 2.384567871E+02
 1.907148361E+01 2.388204346E+02
 1.939002228E+01 2.386808472E+02
 1.949505997E+01 2.386533813E+02
 1.981247520E+01 2.397248688E+02
 1.988531303E+01 2.399997711E+02
 2.012709045E+01 2.408972321E+02
 2.045550537E+01 2.414157562E+02
 2.051539230E+01 2.415427246E+02
 2.057626724E+01 2.417670898E+02
 2.088800430E+01 2.430639191E+02
 2.110549164E+01 2.436060944E+02
 2.122092438E+01 2.438871460E+02
 2.150618362E+01 2.445326385E+02
 2.162494850E+01 2.453905029E+02
 2.192496490E+01 2.476036072E+02
 2.207619286E+01 2.484897003E+02
 2.236873627E+01 2.499194336E+02
 2.252363777E+01 2.506752625E+02
 2.284292603E+01 2.525541534E+02
 2.299886322E+01 2.538724670E+02
 2.331997681E+01 2.558821716E+02
 2.348447990E+01 2.568160706E+02
 2.380610085E+01 2.585645447E+02
 2.397163582E+01 2.595297546E+02
 2.429373932E+01 2.611424255E+02
 2.446023560E+01 2.619864197E+02
 2.478278732E+01 2.632072754E+02
 2.495018578E+01 2.637246399E+02
 2.527313805E+01 2.644104004E+02
 2.544131088E+01 2.645682983E+02
 2.576459885E+01 2.647026672E+02
 2.593335342E+01 2.645591431E+02
 2.625692940E+01 2.642768250E+02
 2.642602730E+01 2.639435730E+02
 2.674971199E+01 2.634776001E+02
 2.691892815E+01 2.631761169E+02
 2.724248505E+01 2.627298889E+02
 2.741179085E+01 2.624906006E+02
 2.773521996E+01 2.620759583E+02
 2.790468788E+01 2.618626099E+02
 2.822801781E+01 2.614173279E+02
 2.839762688E+01 2.611640625E+02
 2.872087860E+01 2.606093445E+02
 2.889059067E+01 2.602596436E+02
 2.921379280E+01 2.595525513E+02
 2.938356590E+01 2.591095581E+02
 2.970674324E+01 2.582857666E+02
 2.987653542E+01 2.578037109E+02
 3.019971085E+01 2.568941040E+02
 3.036948395E+01 2.563801270E+02
 3.069268799E+01 2.553903046E+02
 3.086239624E+01 2.548108826E+02
 3.118565178E+01 2.537485962E+02
 3.135553360E+01 2.531443481E+02
 3.167887115E+01 2.520652008E+02
 3.184936142E+01 2.514536133E+02
 3.217237854E+01 2.503860016E+02
 3.234281921E+01 2.497829895E+02
 3.266458130E+01 2.487322235E+02
 3.283209229E+01 2.481700134E+02
 3.315227509E+01 2.471909332E+02
 3.331546783E+01 2.466705933E+02
 3.363535309E+01 2.457405243E+02
 3.379266357E+01 2.453123779E+02
 3.411080170E+01 2.445207214E+02
 3.426670074E+01 2.441219025E+02
 3.458709335E+01 2.434192505E+02
 3.474311829E+01 2.430906372E+02
 3.506019211E+01 2.425074921E+02
 3.521827316E+01 2.422832947E+02
 3.553885269E+01 2.418426056E+02
 3.570038223E+01 2.416318512E+02
 3.601996613E+01 2.411823273E+02
 3.618274307E+01 2.409827576E+02
 3.650381851E+01 2.406336060E+02
 3.667056656E+01 2.404637451E+02
 3.699288559E+01 2.401322937E+02
 3.716266251E+01 2.399737091E+02
 3.748452759E+01 2.396775513E+02
 3.765719986E+01 2.395210724E+02
 3.797803116E+01 2.392548981E+02
 3.815268326E+01 2.391255646E+02
 3.847226334E+01 2.388922729E+02
 3.864798355E+01 2.387734985E+02
 3.896701431E+01 2.385695801E+02
 3.914355087E+01 2.384638672E+02
 3.946231461E+01 2.382855530E+02
 3.963920212E+01 2.381935577E+02
 3.995783615E+01 2.380425110E+02
 4.013482666E+01 2.379699707E+02
 4.045346451E+01 2.378498840E+02
 4.063034821E+01 2.377924347E+02
 4.094911575E+01 2.376994476E+02
 4.112568283E+01 2.376580963E+02
 4.144471359E+01 2.375908661E+02
 4.162075043E+01 2.375623016E+02
 4.194017410E+01 2.375188904E+02
 4.211544037E+01 2.375061646E+02
 4.243541336E+01 2.374892578E+02
 4.260960770E+01 2.374893341E+02
 4.293033600E+01 2.374913025E+02
 4.310326385E+01 2.375077057E+02
 4.342499161E+01 2.375377960E+02
 4.359698105E+01 2.375597382E+02
 4.391971207E+01 2.375985260E+02
 4.409058380E+01 2.376299591E+02
 4.441297150E+01 2.376796265E+02
 4.458185196E+01 2.376999359E+02
 4.490291595E+01 2.377380981E+02
 4.506946182E+01 2.377602539E+02
 4.538871765E+01 2.377797852E+02
 4.555519867E+01 2.378591461E+02
 4.587118530E+01 2.379283142E+02
 4.605094528E+01 2.378858795E+02
 4.633473206E+01 2.378275146E+02
 4.655927277E+01 2.378120117E+02
 4.676288986E+01 2.379827576E+02
 4.705999374E+01 2.385508881E+02
 4.713411713E+01 2.386353912E+02
 4.731982040E+01 2.387953491E+02
 4.749539566E+01 2.389433746E+02
 4.758545303E+01 2.389855042E+02
 4.783539963E+01 2.391874237E+02
 4.813651276E+01 2.392546844E+02
 4.816616058E+01 2.392542725E+02
 4.819533920E+01 2.392711792E+02
 4.845490265E+01 2.394343719E+02
 4.873336411E+01 2.395264435E+02
 4.877555847E+01 2.395261993E+02
 4.882318115E+01 2.395506287E+02
 4.913208389E+01 2.397799835E+02
 4.939958572E+01 2.403567810E+02
 4.941709518E+01 2.403513489E+02
 4.973326874E+01 2.398069611E+02
 4.978414154E+01 2.397797394E+02
 5.015211105E+01 2.393895416E+02
 5.021586609E+01 2.395101013E+02
 5.058426666E+01 2.402527008E+02
 5.069787216E+01 2.403790131E+02
 5.103102875E+01 2.408171082E+02
 5.118060303E+01 2.409768066E+02
 5.148484421E+01 2.411714630E+02
 5.168299103E+01 2.411435852E+02
 5.193717194E+01 2.412336426E+02
 5.225890350E+01 2.416268463E+02
 5.239304733E+01 2.420754089E+02
 5.269860840E+01 2.435251160E+02
 5.276974487E+01 2.439004211E+02
 5.279919052E+01 2.439381256E+02
 5.315456009E+01 2.438450623E+02
 5.338412476E+01 2.436296844E+02
 5.365903854E+01 2.438418274E+02
 5.391502762E+01 2.443800659E+02
 5.415087128E+01 2.449238586E+02
 5.440860367E+01 2.453735504E+02
 5.464294434E+01 2.457469788E+02
 5.490152740E+01 2.461178131E+02
 5.513510132E+01 2.464837036E+02
 5.539392471E+01 2.468773804E+02
 5.562724304E+01 2.472494659E+02
 5.588593674E+01 2.475877228E+02
 5.611945724E+01 2.479358673E+02
 5.637772369E+01 2.483490906E+02
 5.661148453E+01 2.488187103E+02
 5.686915970E+01 2.492315521E+02
 5.710322571E+01 2.493216248E+02
 5.735977554E+01 2.490277863E+02
 5.759552383E+01 2.483298187E+02
 5.785002899E+01 2.476878967E+02
 5.808802795E+01 2.470275726E+02
 5.834022903E+01 2.466830902E+02
 5.858033371E+01 2.462961731E+02
 5.883008194E+01 2.460499420E+02
 5.907234573E+01 2.456959686E+02
 5.931969452E+01 2.454018250E+02
 5.956419754E+01 2.450672150E+02
 5.980931473E+01 2.447611847E+02
 6.005588531E+01 2.445003510E+02
 6.029892731E+01 2.442326965E+02
 6.054840469E+01 2.439773865E+02
 6.078873062E+01 2.438073425E+02
 6.103992462E+01 2.435854797E+02
 6.127735901E+01 2.434921417E+02
 6.153290176E+01 2.431878967E+02
 6.176587677E+01 2.426341858E+02
 6.201638031E+01 2.420288086E+02
 6.225566101E+01 2.404955139E+02
 6.247960663E+01 2.397288666E+02
 6.275712204E+01 2.388074036E+02
 6.296184921E+01 2.386297150E+02
 6.323663712E+01 2.388825073E+02
 6.338026428E+01 2.389209442E+02
 6.356654358E+01 2.391609802E+02
 6.371128464E+01 2.393801727E+02
 6.395971298E+01 2.387712097E+02
 6.410226440E+01 2.384215546E+02
 6.435607910E+01 2.376195679E+02
 6.451055145E+01 2.367931824E+02
 6.470154572E+01 2.356121216E+02
 6.486051178E+01 2.357370758E+02
 6.501161957E+01 2.352579041E+02
 6.517431641E+01 2.345337372E+02
 6.539858246E+01 2.338607025E+02
 6.551325989E+01 2.341593781E+02
 6.574174500E+01 2.348553772E+02
 6.585902405E+01 2.351099701E+02
 6.592131042E+01 2.350348358E+02
 6.620755005E+01 2.329394379E+02
 6.643138885E+01 2.306976318E+02
 6.662306213E+01 2.297662964E+02
 6.694818115E+01 2.302528839E+02
 6.705690002E+01 2.305898285E+02
 6.743939209E+01 2.307222900E+02
 6.748762512E+01 2.307445679E+02
 6.784059143E+01 2.340761871E+02
 6.788777924E+01 2.344485779E+02
 6.789703369E+01 2.346153412E+02
 6.827018738E+01 2.356456146E+02
 6.832342529E+01 2.356958466E+02
 6.856916046E+01 2.331594391E+02
 6.870632172E+01 2.318147430E+02
 6.872669220E+01 2.319171143E+02
 6.878198242E+01 2.332280884E+02
 6.900298309E+01 2.360503387E+02
 6.915631866E+01 2.340848236E+02
 6.921070099E+01 2.332874451E+02
 6.927733612E+01 2.322992096E+02
 6.935948181E+01 2.309044647E+02
 6.942815399E+01 2.299877777E+02
 6.946968079E+01 2.297773438E+02
 6.951940155E+01 2.292681732E+02
 6.954807281E+01 2.286387329E+02
 6.962133026E+01 2.278607788E+02
 6.962792969E+01 2.278420105E+02
 6.964266205E+01 2.278182526E+02
