TITLE     = "VTK Data"
VARIABLES = "X"
"Velocity_X"
ZONE T="Slice: Y=28.739 (region 1)"
 STRANDID=488, SOLUTIONTIME=772
 I=217, J=1, K=1, ZONETYPE=Ordered
 DATAPACKING=POINT
 DT=(SINGLE SINGLE )
 4.265332413E+01 1.864153137E+02
 4.265385437E+01 1.808811798E+02
 4.265390778E+01 1.803287048E+02
 4.265251160E+01 1.804494019E+02
 4.261319351E+01 1.848388977E+02
 4.260554504E+01 1.836680756E+02
 4.257155609E+01 1.776616211E+02
 4.255424118E+01 1.770622864E+02
 4.252796936E+01 1.761361389E+02
 4.249697113E+01 1.762289734E+02
 4.248400879E+01 1.762229156E+02
 4.245304489E+01 1.764468689E+02
 4.243939209E+01 1.765630341E+02
 4.243289185E+01 1.767351379E+02
 4.239891434E+01 1.776835938E+02
 4.236978149E+01 1.786648407E+02
 4.234860992E+01 1.793423767E+02
 4.232665253E+01 1.800551147E+02
 4.230500031E+01 1.808507690E+02
 4.227726364E+01 1.819812317E+02
 4.225091553E+01 1.832921448E+02
 4.223466492E+01 1.841609497E+02
 4.221287537E+01 1.852061768E+02
 4.218057251E+01 1.867579193E+02
 4.214923096E+01 1.883261719E+02
 4.213004303E+01 1.892891541E+02
 4.209420013E+01 1.910764465E+02
 4.206772614E+01 1.924137115E+02
 4.205893326E+01 1.928480835E+02
 4.198991776E+01 1.963434753E+02
 4.198963547E+01 1.963588409E+02
 4.198653030E+01 1.965240326E+02
 4.191261292E+01 2.004627380E+02
 4.190669632E+01 2.007850800E+02
 4.190068054E+01 2.011195526E+02
 4.182192612E+01 2.055495453E+02
 4.181566238E+01 2.058939514E+02
 4.172685242E+01 2.108898926E+02
 4.172550201E+01 2.109669037E+02
 4.172399139E+01 2.110498657E+02
 4.162907791E+01 2.163507996E+02
 4.160091019E+01 2.179412384E+02
 4.149841309E+01 2.233733368E+02
 4.149147415E+01 2.237363892E+02
 4.146306610E+01 2.251447906E+02
 4.137258911E+01 2.296711578E+02
 4.134986877E+01 2.307039032E+02
 4.124415588E+01 2.355517731E+02
 4.123877335E+01 2.358020172E+02
 4.123674393E+01 2.358803253E+02
 4.113673401E+01 2.394473267E+02
 4.099081039E+01 2.440034180E+02
 4.098825836E+01 2.440808868E+02
 4.098662567E+01 2.441181946E+02
 4.082767487E+01 2.481943817E+02
 4.082282639E+01 2.482783813E+02
 4.075880432E+01 2.493561554E+02
 4.068835831E+01 2.505465698E+02
 4.068240356E+01 2.506386108E+02
 4.057096481E+01 2.519906311E+02
 4.054405594E+01 2.523325500E+02
 4.046418762E+01 2.528948669E+02
 4.041179276E+01 2.530463715E+02
 4.036763763E+01 2.529980469E+02
 4.028043747E+01 2.529022827E+02
 4.025057602E+01 2.528085327E+02
 4.020914078E+01 2.526594391E+02
 4.014725113E+01 2.525476837E+02
 4.006827927E+01 2.520507660E+02
 4.005874634E+01 2.519801483E+02
 4.005377579E+01 2.519334259E+02
 3.998123932E+01 2.511262970E+02
 3.995560455E+01 2.506626434E+02
 3.989621735E+01 2.498294220E+02
 3.987015533E+01 2.493362274E+02
 3.980613327E+01 2.481654816E+02
 3.978932190E+01 2.477861481E+02
 3.971691132E+01 2.461145477E+02
 3.971239853E+01 2.459877625E+02
 3.967755890E+01 2.450473785E+02
 3.963771439E+01 2.439611206E+02
 3.963236237E+01 2.438300476E+02
 3.956465530E+01 2.415743713E+02
 3.955239105E+01 2.411407318E+02
 3.949493790E+01 2.385266724E+02
 3.948064423E+01 2.379681091E+02
 3.945273590E+01 2.366312103E+02
 3.941485596E+01 2.348243866E+02
 3.940407944E+01 2.341543884E+02
 3.937857819E+01 2.324000854E+02
 3.936549759E+01 2.314830170E+02
 3.935993195E+01 2.310988159E+02
 3.933095169E+01 2.281923523E+02
 3.931419373E+01 2.265469055E+02
 3.929930115E+01 2.242063599E+02
 3.927627945E+01 2.206400452E+02
 3.927072144E+01 2.191760406E+02
 3.924690628E+01 2.129704895E+02
 3.924537277E+01 2.125704803E+02
 3.924501419E+01 2.124781647E+02
 3.922378159E+01 2.029623871E+02
 3.921942139E+01 2.010340576E+02
 3.920508957E+01 1.896908264E+02
 3.919877625E+01 1.847333221E+02
 3.918935394E+01 1.716888733E+02
 3.918261719E+01 1.623901520E+02
 3.917659760E+01 1.490112762E+02
 3.917049408E+01 1.355030212E+02
 3.916686630E+01 1.233972549E+02
 3.916213226E+01 1.077159729E+02
 3.915923309E+01 9.503341675E+01
 3.915736771E+01 8.683558655E+01
 3.915637589E+01 8.338456726E+01
 3.915576172E+01 8.123293304E+01
 3.915612030E+01 8.639871979E+01
 3.915668106E+01 9.443605042E+01
 3.915843201E+01 1.075246048E+02
 3.916081238E+01 1.252747269E+02
 3.916472626E+01 1.449018555E+02
 3.916881561E+01 1.653324890E+02
 3.917596817E+01 1.870661011E+02
 3.918085098E+01 2.017816772E+02
 3.919282532E+01 2.229720459E+02
 3.919692230E+01 2.301787262E+02
 3.921641922E+01 2.498686066E+02
 3.921744537E+01 2.509050446E+02
 3.922227478E+01 2.534592590E+02
 3.924297333E+01 2.644100037E+02
 3.925048447E+01 2.663064575E+02
 3.927424240E+01 2.723067627E+02
 3.929879379E+01 2.752353210E+02
 3.931217194E+01 2.768268127E+02
 3.934090424E+01 2.785872498E+02
 3.935794067E+01 2.796383667E+02
 3.937247849E+01 2.801671753E+02
 3.941293335E+01 2.816285400E+02
 3.946051788E+01 2.829345398E+02
 3.947881699E+01 2.834424133E+02
 3.953549957E+01 2.847450256E+02
 3.955063629E+01 2.850977783E+02
 3.960530090E+01 2.860850830E+02
 3.963066101E+01 2.865407715E+02
 3.967732239E+01 2.871862488E+02
 3.971514511E+01 2.877304688E+02
 3.975123596E+01 2.881653442E+02
 3.980417252E+01 2.887782593E+02
 3.982809830E+01 2.890685120E+02
 3.989269257E+01 2.899069519E+02
 3.990673447E+01 2.900846558E+02
 3.996719360E+01 2.908693848E+02
 3.997768402E+01 2.909588013E+02
 4.003189850E+01 2.913661194E+02
 4.010203171E+01 2.921111145E+02
 4.011258698E+01 2.922456970E+02
 4.012439728E+01 2.923846436E+02
 4.019537354E+01 2.932150879E+02
 4.026764297E+01 2.940313416E+02
 4.029479980E+01 2.943745422E+02
 4.034715652E+01 2.949453430E+02
 4.039786911E+01 2.955776672E+02
 4.041920471E+01 2.957812805E+02
 4.052382278E+01 2.967782898E+02
 4.055591583E+01 2.970666809E+02
 4.061393738E+01 2.979387512E+02
 4.067054749E+01 2.988434753E+02
 4.075874710E+01 3.006085510E+02
 4.078134537E+01 3.010621338E+02
 4.079096985E+01 3.012774963E+02
 4.089532471E+01 3.037305298E+02
 4.094176483E+01 3.046762390E+02
 4.102784729E+01 3.063751831E+02
 4.111100388E+01 3.079582520E+02
 4.117345047E+01 3.088856506E+02
 4.126012802E+01 3.104145508E+02
 4.127661514E+01 3.106855164E+02
 4.131919098E+01 3.111095276E+02
 4.136200333E+01 3.114106140E+02
 4.138248825E+01 3.104395142E+02
 4.145210648E+01 3.070382690E+02
 4.148705673E+01 3.050080872E+02
 4.157810211E+01 2.968779907E+02
 4.161836624E+01 2.931302490E+02
 4.168033981E+01 2.879682922E+02
 4.170461273E+01 2.862623291E+02
 4.174409103E+01 2.841674805E+02
 4.179429245E+01 2.818300171E+02
 4.185984802E+01 2.794600830E+02
 4.188738251E+01 2.784789429E+02
 4.191933441E+01 2.774328613E+02
 4.195058060E+01 2.762800598E+02
 4.199739456E+01 2.740101624E+02
 4.201075363E+01 2.733645325E+02
 4.206389999E+01 2.708114014E+02
 4.207551956E+01 2.702530823E+02
 4.207928848E+01 2.700892029E+02
 4.213824463E+01 2.677401123E+02
 4.219338989E+01 2.661228638E+02
 4.220202255E+01 2.658439331E+02
 4.222710037E+01 2.654854736E+02
 4.226187515E+01 2.649822388E+02
 4.227115250E+01 2.649255066E+02
 4.232153320E+01 2.645904541E+02
 4.233539963E+01 2.646347046E+02
 4.236027908E+01 2.644718933E+02
 4.238667297E+01 2.643280334E+02
 4.241547012E+01 2.643202515E+02
 4.243103790E+01 2.642440491E+02
 4.244089508E+01 2.637376404E+02
 4.247740555E+01 2.620532837E+02
 4.250736237E+01 2.609664917E+02
 4.252338409E+01 2.604127197E+02
 4.256724167E+01 2.527677002E+02
 4.256990814E+01 2.523202972E+02
 4.258146667E+01 2.507525177E+02
 4.261334229E+01 2.463836975E+02
 4.261951828E+01 2.368348541E+02
 4.265332413E+01 1.864153137E+02
