TITLE     = "VTK Data"
VARIABLES = "X"
"Velocity_X"
ZONE T="Slice: Y=0 (region 1)"
 STRANDID=311, SOLUTIONTIME=772
 I=954, J=1, K=1, ZONETYPE=Ordered
 DATAPACKING=POINT
 DT=(SINGLE SINGLE )
 7.384332275E+01 1.790075531E+02
 7.384446716E+01 1.764140320E+02
 7.384446716E+01 1.664018555E+02
 7.384518433E+01 1.624722443E+02
 7.384518433E+01 1.561503448E+02
 7.384549713E+01 1.525136566E+02
 7.384549713E+01 1.408731232E+02
 7.384549713E+01 1.435606384E+02
 7.384565735E+01 1.421863556E+02
 7.384565735E+01 1.357530365E+02
 7.384571838E+01 1.346939087E+02
 7.384571838E+01 1.340160828E+02
 7.384573364E+01 1.335711670E+02
 7.384573364E+01 1.284284668E+02
 7.384574890E+01 1.279088058E+02
 7.384574890E+01 1.257781677E+02
 7.384576416E+01 1.251863785E+02
 7.384576416E+01 1.238356934E+02
 7.384578705E+01 1.234077301E+02
 7.384578705E+01 1.219621124E+02
 7.384581757E+01 1.218387070E+02
 7.384581757E+01 1.210102081E+02
 7.384582520E+01 1.211756668E+02
 7.384582520E+01 1.198403473E+02
 7.384582520E+01 1.193508301E+02
 7.384582520E+01 1.229719620E+02
 7.384582520E+01 1.231759796E+02
 7.384582520E+01 1.206312561E+02
 7.384582520E+01 1.205878067E+02
 7.384582520E+01 1.202842407E+02
 7.384582520E+01 1.200961685E+02
 7.384582520E+01 1.201333694E+02
 7.384582520E+01 1.203885651E+02
 7.384583282E+01 1.200745850E+02
 7.384583282E+01 1.200495377E+02
 7.384584808E+01 1.200941772E+02
 7.384584808E+01 1.161396484E+02
 7.384587097E+01 1.161691284E+02
 7.384587097E+01 1.187373810E+02
 7.384590149E+01 1.186220169E+02
 7.384590149E+01 1.171300430E+02
 7.384593201E+01 1.174452286E+02
 7.384593201E+01 1.165913391E+02
 7.384594727E+01 1.163193893E+02
 7.384594727E+01 1.172124939E+02
 7.384594727E+01 1.172276535E+02
 7.384594727E+01 1.182393875E+02
 7.384590149E+01 1.184312592E+02
 7.384590149E+01 1.198882523E+02
 7.384580994E+01 1.206782150E+02
 7.384580994E+01 1.262410202E+02
 7.384560394E+01 1.272806931E+02
 7.384560394E+01 1.245199280E+02
 7.384560394E+01 1.370821686E+02
 7.384526825E+01 1.387109985E+02
 7.384526825E+01 1.434760590E+02
 7.384490967E+01 1.459282227E+02
 7.384490967E+01 1.499750214E+02
 7.384435272E+01 1.532209015E+02
 7.384435272E+01 1.637241058E+02
 7.384320831E+01 1.663056641E+02
 7.383402252E+01 1.700086975E+02
 7.383082581E+01 1.709585266E+02
 7.381964874E+01 1.736175079E+02
 7.381701660E+01 1.746522217E+02
 7.380364990E+01 1.785167847E+02
 7.380110168E+01 1.792532043E+02
 7.378518677E+01 1.829650269E+02
 7.376679230E+01 1.826688690E+02
 7.376383972E+01 1.829256287E+02
 7.374227142E+01 1.853789215E+02
 7.373916626E+01 1.857196198E+02
 7.371401215E+01 1.878154297E+02
 7.371063995E+01 1.879823761E+02
 7.368133545E+01 1.888245850E+02
 7.367771149E+01 1.889752655E+02
 7.364343262E+01 1.915938721E+02
 7.363969421E+01 1.918912811E+02
 7.359928131E+01 1.937047119E+02
 7.359560394E+01 1.939124451E+02
 7.354798126E+01 1.956842957E+02
 7.354450989E+01 1.958460083E+02
 7.348867798E+01 1.972670441E+02
 7.348548126E+01 1.973766174E+02
 7.342048645E+01 1.989786682E+02
 7.341754913E+01 1.990563660E+02
 7.334191895E+01 2.010746613E+02
 7.333922577E+01 2.011522064E+02
 7.325127411E+01 2.035057526E+02
 7.324879456E+01 2.035737610E+02
 7.314717102E+01 2.050806732E+02
 7.314488220E+01 2.051083832E+02
 7.302799225E+01 2.055908508E+02
 7.302587891E+01 2.056093750E+02
 7.289142609E+01 2.069609528E+02
 7.288945007E+01 2.069918976E+02
 7.273349762E+01 2.081561127E+02
 7.273161316E+01 2.081692200E+02
 7.254798889E+01 2.091682739E+02
 7.254611206E+01 2.091806488E+02
 7.233007812E+01 2.099788208E+02
 7.232817078E+01 2.099892120E+02
 7.207809448E+01 2.110613556E+02
 7.207613373E+01 2.110724335E+02
 7.180606079E+01 2.122051392E+02
 7.180411530E+01 2.122165070E+02
 7.153728485E+01 2.133640594E+02
 7.153546906E+01 2.133744049E+02
 7.128139496E+01 2.139464874E+02
 7.127972412E+01 2.139511261E+02
 7.103838348E+01 2.137568207E+02
 7.103681183E+01 2.137525482E+02
 7.080431366E+01 2.153206482E+02
 7.080280304E+01 2.153441620E+02
 7.057507324E+01 2.169094849E+02
 7.057358551E+01 2.169071960E+02
 7.034748077E+01 2.164537506E+02
 7.034600067E+01 2.164517212E+02
 7.011898041E+01 2.173242035E+02
 7.011750031E+01 2.173309174E+02
 6.988616943E+01 2.180094452E+02
 6.988468170E+01 2.180139313E+02
 6.964487457E+01 2.185819550E+02
 6.964337158E+01 2.185849762E+02
 6.939054108E+01 2.191702881E+02
 6.938901520E+01 2.191744080E+02
 6.911860657E+01 2.191954956E+02
 6.911705780E+01 2.191933594E+02
 6.882421112E+01 2.186947021E+02
 6.882263184E+01 2.186934204E+02
 6.850198364E+01 2.188669739E+02
 6.850037384E+01 2.188694458E+02
 6.814767456E+01 2.189398041E+02
 6.814602661E+01 2.189382324E+02
 6.775948334E+01 2.190885925E+02
 6.775780487E+01 2.190885773E+02
 6.733858490E+01 2.184445190E+02
 6.733688354E+01 2.184423370E+02
 6.689012909E+01 2.181214447E+02
 6.688842010E+01 2.181202850E+02
 6.642535400E+01 2.181824341E+02
 6.642366791E+01 2.181830597E+02
 6.594716644E+01 2.187596283E+02
 6.594550323E+01 2.187613373E+02
 6.546463776E+01 2.196949921E+02
 6.546300507E+01 2.197005005E+02
 6.497958374E+01 2.213452301E+02
 6.497798157E+01 2.213489838E+02
 6.449618530E+01 2.217692871E+02
 6.449460602E+01 2.217701569E+02
 6.401261902E+01 2.234597626E+02
 6.401105499E+01 2.234659119E+02
 6.352885437E+01 2.248237305E+02
 6.352729797E+01 2.248282623E+02
 6.304487228E+01 2.262209015E+02
 6.304331970E+01 2.262237701E+02
 6.256065369E+01 2.270155334E+02
 6.255910110E+01 2.270180969E+02
 6.207618332E+01 2.278147278E+02
 6.207463455E+01 2.278169098E+02
 6.159148026E+01 2.285933380E+02
 6.158992767E+01 2.285957489E+02
 6.110654068E+01 2.293347168E+02
 6.110498810E+01 2.293370819E+02
 6.062140656E+01 2.300569916E+02
 6.061985397E+01 2.300592194E+02
 6.013607407E+01 2.307612000E+02
 6.013451767E+01 2.307635345E+02
 5.965058899E+01 2.314976959E+02
 5.964903641E+01 2.315002441E+02
 5.916496658E+01 2.323367004E+02
 5.916341400E+01 2.323396454E+02
 5.867921448E+01 2.332666016E+02
 5.867766190E+01 2.332698669E+02
 5.819334793E+01 2.342949677E+02
 5.819179535E+01 2.342986755E+02
 5.770738602E+01 2.355360870E+02
 5.770583344E+01 2.355406036E+02
 5.722130585E+01 2.370038605E+02
 5.721974945E+01 2.370088043E+02
 5.673497391E+01 2.385459747E+02
 5.673341751E+01 2.385512543E+02
 5.624839401E+01 2.403375854E+02
 5.624683762E+01 2.403441315E+02
 5.576152420E+01 2.427980347E+02
 5.575996780E+01 2.428073120E+02
 5.527433777E+01 2.467808380E+02
 5.527277756E+01 2.467959595E+02
 5.478669739E+01 2.530669861E+02
 5.478513718E+01 2.530890198E+02
 5.429809570E+01 2.601152649E+02
 5.429653168E+01 2.601358948E+02
 5.380822372E+01 2.637356873E+02
 5.380665588E+01 2.637417603E+02
 5.331731033E+01 2.627384033E+02
 5.331573105E+01 2.627362976E+02
 5.331413269E+01 2.627300415E+02
 5.282479477E+01 2.598478088E+02
 5.282317734E+01 2.598280640E+02
 5.233498764E+01 2.535031586E+02
 5.233334351E+01 2.534801331E+02
 5.184817505E+01 2.481217346E+02
 5.184649277E+01 2.481089783E+02
 5.136588287E+01 2.447235413E+02
 5.136414337E+01 2.447155914E+02
 5.088993454E+01 2.426843567E+02
 5.088813400E+01 2.426789093E+02
 5.042518234E+01 2.414105530E+02
 5.042336273E+01 2.414066620E+02
 4.998760223E+01 2.404492645E+02
 4.998583984E+01 2.404455414E+02
 4.959792328E+01 2.395447998E+02
 4.959624863E+01 2.395414581E+02
 4.926037216E+01 2.392807159E+02
 4.925876617E+01 2.392820892E+02
 4.896798325E+01 2.393931427E+02
 4.896641541E+01 2.393917389E+02
 4.871211624E+01 2.391612549E+02
 4.845679855E+01 2.381794281E+02
 4.845522690E+01 2.381730652E+02
 4.845449066E+01 2.381730194E+02
 4.819884109E+01 2.382921448E+02
 4.819767761E+01 2.382930603E+02
 4.793518829E+01 2.377906647E+02
 4.793384171E+01 2.377866821E+02
 4.763700485E+01 2.372068176E+02
 4.763561630E+01 2.372044067E+02
 4.729728317E+01 2.365776215E+02
 4.729588318E+01 2.365753021E+02
 4.691320801E+01 2.359903870E+02
 4.691179657E+01 2.359885254E+02
 4.648546982E+01 2.353791199E+02
 4.648405075E+01 2.353771210E+02
 4.602888489E+01 2.347054901E+02
 4.602748489E+01 2.347033844E+02
 4.556530380E+01 2.340429077E+02
 4.556392288E+01 2.340409698E+02
 4.509817886E+01 2.334038391E+02
 4.509680557E+01 2.334016266E+02
 4.463354111E+01 2.325187225E+02
 4.463216400E+01 2.325152893E+02
 4.416553116E+01 2.310591888E+02
 4.416413498E+01 2.310556946E+02
 4.369601059E+01 2.300912170E+02
 4.369464493E+01 2.300886688E+02
 4.324396133E+01 2.289640503E+02
 4.324266815E+01 2.289590759E+02
 4.282001495E+01 2.276900024E+02
 4.281875229E+01 2.276840668E+02
 4.243159866E+01 2.256133575E+02
 4.243030548E+01 2.256051636E+02
 4.207107544E+01 2.235182343E+02
 4.206992340E+01 2.235108337E+02
 4.173267365E+01 2.213797760E+02
 4.173172760E+01 2.213728333E+02
 4.173082352E+01 2.213670959E+02
 4.140849304E+01 2.195290527E+02
 4.140766144E+01 2.195240936E+02
 4.140678024E+01 2.195179901E+02
 4.109195709E+01 2.173466339E+02
 4.109103012E+01 2.173388824E+02
 4.109015274E+01 2.173363037E+02
 4.077836227E+01 2.159890289E+02
 4.077755356E+01 2.159832306E+02
 4.077659988E+01 2.159814911E+02
 4.047719574E+01 2.155245667E+02
 4.047599411E+01 2.155181427E+02
 4.020272446E+01 2.096336365E+02
 4.020154572E+01 2.095769501E+02
 3.995117188E+01 2.066717072E+02
 3.995024490E+01 2.066715088E+02
 3.994940567E+01 2.067087402E+02
 3.994804382E+01 2.067770233E+02
 3.969939041E+01 2.174922943E+02
 3.943732071E+01 2.271190948E+02
 3.943559265E+01 2.271777954E+02
 3.943442535E+01 2.272035217E+02
 3.914854050E+01 2.333650208E+02
 3.914724350E+01 2.333828430E+02
 3.883384705E+01 2.371179504E+02
 3.883243942E+01 2.371349030E+02
 3.848915863E+01 2.404042358E+02
 3.848785782E+01 2.404156647E+02
 3.811392212E+01 2.427763824E+02
 3.811282349E+01 2.427825928E+02
 3.811174393E+01 2.427863770E+02
 3.770673370E+01 2.445684052E+02
 3.770547867E+01 2.445737610E+02
 3.727640152E+01 2.462778473E+02
 3.727528763E+01 2.462828217E+02
 3.727402115E+01 2.462848358E+02
 3.682693481E+01 2.460361328E+02
 3.682564545E+01 2.460270844E+02
 3.636288071E+01 2.420729828E+02
 3.636174393E+01 2.420615540E+02
 3.636050034E+01 2.420515747E+02
 3.588610077E+01 2.383377533E+02
 3.588460541E+01 2.383283997E+02
 3.540211868E+01 2.359213867E+02
 3.540051651E+01 2.359143219E+02
 3.491337204E+01 2.342144470E+02
 3.491187286E+01 2.342098541E+02
 3.442213821E+01 2.330444336E+02
 3.442070007E+01 2.330413818E+02
 3.393028259E+01 2.322662201E+02
 3.392877960E+01 2.322644043E+02
 3.343938065E+01 2.319266205E+02
 3.343796158E+01 2.319261932E+02
 3.295156097E+01 2.320363770E+02
 3.295035172E+01 2.320371094E+02
 3.246489334E+01 2.325808411E+02
 3.246382904E+01 2.325821381E+02
 3.246275711E+01 2.325842133E+02
 3.197773361E+01 2.336217499E+02
 3.197640419E+01 2.336248932E+02
 3.149212074E+01 2.348843689E+02
 3.149058723E+01 2.348889313E+02
 3.100592041E+01 2.364083099E+02
 3.100452614E+01 2.364130096E+02
 3.052215385E+01 2.381698151E+02
 3.052092361E+01 2.381742249E+02
 3.051975060E+01 2.381789093E+02
 3.003532791E+01 2.401305542E+02
 3.003397369E+01 2.401357117E+02
 2.954655647E+01 2.419138641E+02
 2.954521942E+01 2.419195557E+02
 2.905407715E+01 2.438801422E+02
 2.905277443E+01 2.438854523E+02
 2.855914307E+01 2.458135834E+02
 2.855791473E+01 2.458184357E+02
 2.855677414E+01 2.458230438E+02
 2.805751228E+01 2.477026672E+02
 2.805637550E+01 2.477064514E+02
 2.805554199E+01 2.477094879E+02
 2.805441284E+01 2.477132111E+02
 2.755298233E+01 2.494160767E+02
 2.755170441E+01 2.494197083E+02
 2.705019760E+01 2.506320648E+02
 2.704872513E+01 2.506352539E+02
 2.654799271E+01 2.514723816E+02
 2.654683304E+01 2.514739838E+02
 2.654566574E+01 2.514744568E+02
 2.604478645E+01 2.516897888E+02
 2.604329300E+01 2.516889496E+02
 2.554034042E+01 2.512631226E+02
 2.553879547E+01 2.512608948E+02
 2.503568840E+01 2.504144135E+02
 2.503428650E+01 2.504112396E+02
 2.453232765E+01 2.490617218E+02
 2.453114700E+01 2.490585480E+02
 2.452979279E+01 2.490550690E+02
 2.402910805E+01 2.478794098E+02
 2.402770996E+01 2.478761749E+02
 2.352946663E+01 2.470328979E+02
 2.352797890E+01 2.470313416E+02
 2.303199577E+01 2.470258484E+02
 2.303046799E+01 2.470272369E+02
 2.253953171E+01 2.480170746E+02
 2.253812599E+01 2.480208893E+02
 2.205542183E+01 2.496325836E+02
 2.205411339E+01 2.496378784E+02
 2.205286026E+01 2.496453094E+02
 2.158349800E+01 2.535011292E+02
 2.158204842E+01 2.535190277E+02
 2.113018417E+01 2.576983948E+02
 2.112873268E+01 2.577083435E+02
 2.070148849E+01 2.551840210E+02
 2.070025826E+01 2.551695557E+02
 2.069897270E+01 2.551424866E+02
 2.030479050E+01 2.452811432E+02
 2.030340958E+01 2.452277069E+02
 1.994722366E+01 2.321298218E+02
 1.994570351E+01 2.320662384E+02
 1.962604713E+01 2.134097443E+02
 1.962476349E+01 2.133210754E+02
 1.933211136E+01 1.973117371E+02
 1.933090591E+01 1.972651825E+02
 1.932930374E+01 1.972902069E+02
 1.903313255E+01 2.005085602E+02
 1.871098137E+01 2.072634277E+02
 1.870897102E+01 2.073069763E+02
 1.834596252E+01 2.111042938E+02
 1.834427643E+01 2.111194458E+02
 1.793785095E+01 2.138385620E+02
 1.793627739E+01 2.138471375E+02
 1.749124146E+01 2.167073822E+02
 1.748964882E+01 2.167211304E+02
 1.701808167E+01 2.203993530E+02
 1.701668358E+01 2.204097443E+02
 1.652827263E+01 2.237410126E+02
 1.652687454E+01 2.237503662E+02
 1.603099251E+01 2.264925842E+02
 1.602957153E+01 2.264997711E+02
 1.552651119E+01 2.291191406E+02
 1.552505207E+01 2.291263733E+02
 1.501574707E+01 2.312182922E+02
 1.501427174E+01 2.312238922E+02
 1.450537682E+01 2.330235291E+02
 1.450391579E+01 2.330281525E+02
 1.399976921E+01 2.345156403E+02
 1.399833488E+01 2.345200348E+02
 1.349880409E+01 2.361664276E+02
 1.349735928E+01 2.361715698E+02
 1.299917316E+01 2.380882568E+02
 1.299762535E+01 2.380943604E+02
 1.250695896E+01 2.396860504E+02
 1.250557041E+01 2.396893311E+02
 1.202297115E+01 2.414756012E+02
 1.202178669E+01 2.414802094E+02
 1.202060413E+01 2.414867706E+02
 1.153809357E+01 2.436412506E+02
 1.153683758E+01 2.436470032E+02
 1.105257416E+01 2.465255737E+02
 1.105124378E+01 2.465357208E+02
 1.056456852E+01 2.501342316E+02
 1.056326675E+01 2.501419983E+02
 1.007442093E+01 2.528155518E+02
 1.007303905E+01 2.528228302E+02
 9.578484535E+00 2.553245850E+02
 9.577082634E+00 2.553308563E+02
 9.079011917E+00 2.571756592E+02
 9.077592850E+00 2.571797180E+02
 8.577304840E+00 2.581406250E+02
 8.575884819E+00 2.581420898E+02
 8.077517509E+00 2.581416016E+02
 8.076105118E+00 2.581399536E+02
 7.579080582E+00 2.573237610E+02
 7.577685356E+00 2.573204651E+02
 7.086270332E+00 2.561083679E+02
 7.084894180E+00 2.561044922E+02
 6.600528717E+00 2.536143951E+02
 6.599161148E+00 2.536041107E+02
 6.124628067E+00 2.508942871E+02
 6.123199463E+00 2.508889465E+02
 5.658679485E+00 2.492465668E+02
 5.657234192E+00 2.492390594E+02
 5.217853069E+00 2.461584625E+02
 5.216506481E+00 2.461454315E+02
 4.803795815E+00 2.400985718E+02
 4.802700520E+00 2.400779419E+02
 4.458299637E+00 2.354462738E+02
 4.457454681E+00 2.354373169E+02
 4.456552982E+00 2.354418182E+02
 4.113072395E+00 2.365667877E+02
 4.111919880E+00 2.365610809E+02
 3.745398760E+00 2.318084717E+02
 3.744154215E+00 2.317864990E+02
 3.393643618E+00 2.282156067E+02
 3.083682299E+00 2.270856171E+02
 3.082851887E+00 2.270787201E+02
 3.081023693E+00 2.270614166E+02
 2.773112535E+00 2.247457428E+02
 2.376603127E+00 2.177629395E+02
 2.374885559E+00 2.177268982E+02
 1.967562556E+00 2.072438965E+02
 1.966214657E+00 2.072094574E+02
 1.964945078E+00 2.071793060E+02
 1.587533951E+00 1.988336182E+02
 1.586078048E+00 1.987969513E+02
 1.258845925E+00 1.901659546E+02
 1.257442474E+00 1.901145172E+02
 9.828447700E-01 1.815176697E+02
 9.813448787E-01 1.814728699E+02
 7.294135094E-01 1.748339081E+02
 7.280030847E-01 1.747706451E+02
 5.159773231E-01 1.589515533E+02
 5.146678090E-01 1.588121338E+02
 3.410321772E-01 1.370713501E+02
 3.397014439E-01 1.368660889E+02
 2.016837001E-01 1.078176880E+02
 2.006223947E-01 1.075231476E+02
 9.688104689E-02 6.652552032E+01
 9.610734135E-02 6.624305725E+01
 9.518439323E-02 6.582046509E+01
 2.669230103E-02 3.264203262E+01
 -7.639099844E-03 1.058037567E+01
 -7.984413765E-03 1.038294506E+01
 -8.117561229E-03 1.025530148E+01
 -4.694559146E-03 1.037936306E+01
 -4.439807963E-03 1.057035160E+01
 3.002849966E-02 3.299605560E+01
 3.064011969E-02 3.329905319E+01
 8.990240097E-02 6.164755249E+01
 9.071440995E-02 6.198781204E+01
 1.716064066E-01 8.988673401E+01
 1.726443321E-01 9.015766144E+01
 2.756185234E-01 1.095512161E+02
 2.765926421E-01 1.097331924E+02
 3.964866102E-01 1.271559753E+02
 3.974502385E-01 1.272703400E+02
 3.983695805E-01 1.273579865E+02
 5.260162354E-01 1.415999146E+02
 5.271295905E-01 1.417099762E+02
 6.499592066E-01 1.497642059E+02
 6.511857510E-01 1.498438416E+02
 7.591667175E-01 1.556978912E+02
 7.604264617E-01 1.557552948E+02
 8.539519310E-01 1.610847168E+02
 8.553879261E-01 1.611624908E+02
 9.361383915E-01 1.656141205E+02
 9.376247525E-01 1.656705170E+02
 1.007356405E+00 1.676076202E+02
 1.008876681E+00 1.676463928E+02
 1.068980336E+00 1.693530426E+02
 1.070404172E+00 1.693783112E+02
 1.122328997E+00 1.693849945E+02
 1.123824477E+00 1.693677979E+02
 1.170116186E+00 1.681911621E+02
 1.171527028E+00 1.681607513E+02
 1.213410139E+00 1.678436279E+02
 1.214900255E+00 1.677152100E+02
 1.225544691E+00 1.661274261E+02
 1.258165479E+00 1.625916443E+02
 1.288272500E+00 1.543834991E+02
 1.298825741E+00 1.521891785E+02
 1.337134600E+00 1.376504822E+02
 1.338527560E+00 1.370873871E+02
 1.339454532E+00 1.367223969E+02
 1.379124045E+00 1.051190186E+02
 1.379999161E+00 1.051467514E+02
 1.422040462E+00 1.181601105E+02
 1.422890663E+00 1.183046341E+02
 1.468560100E+00 1.213281326E+02
 1.469472647E+00 1.213153763E+02
 1.520189881E+00 1.220125656E+02
 1.521191716E+00 1.219926605E+02
 1.522013187E+00 1.220125961E+02
 1.578773022E+00 1.242264175E+02
 1.579568624E+00 1.242774811E+02
 1.580484986E+00 1.242989960E+02
 1.635237813E+00 1.256297302E+02
 1.636307120E+00 1.257147980E+02
 1.683738589E+00 1.302457581E+02
 1.684934735E+00 1.303284454E+02
 1.725672364E+00 1.311635284E+02
 1.726666331E+00 1.312521057E+02
 1.761528730E+00 1.319165039E+02
 1.762425303E+00 1.318727722E+02
 1.763003945E+00 1.318327942E+02
 1.793259144E+00 1.328299408E+02
 1.793931246E+00 1.329371643E+02
 1.794753313E+00 1.329406738E+02
 1.820701241E+00 1.348092804E+02
 1.821697950E+00 1.349511566E+02
 1.843586206E+00 1.378365173E+02
 1.844730020E+00 1.379053192E+02
 1.863719821E+00 1.379509125E+02
 1.864703894E+00 1.379953308E+02
 1.880763650E+00 1.385792389E+02
 1.881554961E+00 1.385706177E+02
 1.882423282E+00 1.385742950E+02
 1.896106362E+00 1.401217194E+02
 1.897050619E+00 1.403905334E+02
 1.908242464E+00 1.423705292E+02
 1.909203529E+00 1.424036102E+02
 1.919194937E+00 1.434539795E+02
 1.920105100E+00 1.435932617E+02
 1.921195626E+00 1.438574982E+02
 1.931367874E+00 1.455705566E+02
 1.942507267E+00 1.478471680E+02
 1.943709135E+00 1.480503235E+02
 1.956717491E+00 1.496921234E+02
 1.957960725E+00 1.499306488E+02
 1.973417282E+00 1.518091583E+02
 1.974731088E+00 1.519546967E+02
 1.993304610E+00 1.549449005E+02
 1.994700909E+00 1.551066589E+02
 2.016767740E+00 1.571036835E+02
 2.018220186E+00 1.572307892E+02
 2.043189049E+00 1.603190002E+02
 2.044607401E+00 1.604571381E+02
 2.074057102E+00 1.634486237E+02
 2.075477123E+00 1.635804596E+02
 2.110955477E+00 1.676498566E+02
 2.112388611E+00 1.678271332E+02
 2.154985189E+00 1.729651947E+02
 2.156418324E+00 1.731344910E+02
 2.207818985E+00 1.784514008E+02
 2.209261417E+00 1.786372070E+02
 2.271229982E+00 1.849771881E+02
 2.272693634E+00 1.851146545E+02
 2.346788406E+00 1.914210052E+02
 2.348278761E+00 1.916304321E+02
 2.436383724E+00 1.990846863E+02
 2.437918901E+00 1.991976013E+02
 2.543240070E+00 2.067787170E+02
 2.544857025E+00 2.068889465E+02
 2.669979811E+00 2.130838013E+02
 2.671704054E+00 2.131806793E+02
 2.813317537E+00 2.191929932E+02
 2.815097570E+00 2.192666016E+02
 2.947340488E+00 2.249878998E+02
 2.948876858E+00 2.250549927E+02
 3.081409216E+00 2.305332794E+02
 3.082851887E+00 2.305856476E+02
 3.083977699E+00 2.306295624E+02
 3.218820333E+00 2.351031189E+02
 3.220122576E+00 2.351320038E+02
 3.366371870E+00 2.379853973E+02
 3.367769957E+00 2.380076141E+02
 3.531001329E+00 2.397361603E+02
 3.532264233E+00 2.397433014E+02
 3.721071482E+00 2.406016541E+02
 3.722209454E+00 2.406090546E+02
 3.943598747E+00 2.389725647E+02
 3.944620132E+00 2.389563293E+02
 3.945777655E+00 2.389429474E+02
 4.208909988E+00 2.360734863E+02
 4.456555843E+00 2.373008728E+02
 4.457454681E+00 2.373029327E+02
 4.458302975E+00 2.373076782E+02
 4.706603527E+00 2.389058075E+02
 4.707939625E+00 2.389231873E+02
 5.000876427E+00 2.428774414E+02
 5.002263069E+00 2.428905487E+02
 5.336442947E+00 2.436953125E+02
 5.337910652E+00 2.436951141E+02
 5.719150543E+00 2.441366119E+02
 5.720616341E+00 2.441390991E+02
 6.143820286E+00 2.459038544E+02
 6.145207882E+00 2.459110870E+02
 6.599674225E+00 2.481860352E+02
 6.601056576E+00 2.481933289E+02
 7.075137138E+00 2.505221252E+02
 7.076513767E+00 2.505288544E+02
 7.560531616E+00 2.527488861E+02
 7.561916828E+00 2.527552185E+02
 8.053695679E+00 2.549638824E+02
 8.055109024E+00 2.549699097E+02
 8.553802490E+00 2.570383301E+02
 8.555233955E+00 2.570441589E+02
 9.054215431E+00 2.589703979E+02
 9.055637360E+00 2.589756165E+02
 9.552447319E+00 2.607250977E+02
 9.553862572E+00 2.607298889E+02
 1.005144310E+01 2.622776794E+02
 1.005285072E+01 2.622820129E+02
 1.054808044E+01 2.636980591E+02
 1.054940987E+01 2.637010498E+02
 1.104247665E+01 2.633298340E+02
 1.104381561E+01 2.633267822E+02
 1.153300476E+01 2.617940674E+02
 1.153426838E+01 2.617888794E+02
 1.202060318E+01 2.563668518E+02
 1.202178669E+01 2.563493347E+02
 1.202296829E+01 2.563300476E+02
 1.250861835E+01 2.483148499E+02
 1.250987816E+01 2.482996216E+02
 1.299714565E+01 2.443699799E+02
 1.299845600E+01 2.443647766E+02
 1.349064159E+01 2.432908936E+02
 1.349196053E+01 2.432871094E+02
 1.398917866E+01 2.418460236E+02
 1.399059677E+01 2.418420258E+02
 1.449129295E+01 2.407094879E+02
 1.449273205E+01 2.407067871E+02
 1.499714375E+01 2.399176025E+02
 1.499860287E+01 2.399155426E+02
 1.550636673E+01 2.392881775E+02
 1.550783348E+01 2.392865906E+02
 1.601514435E+01 2.388280334E+02
 1.601662064E+01 2.388268890E+02
 1.652750969E+01 2.385305481E+02
 1.652898979E+01 2.385298309E+02
 1.703743744E+01 2.383460846E+02
 1.703890228E+01 2.383458252E+02
 1.754457474E+01 2.383487091E+02
 1.754603195E+01 2.383488922E+02
 1.805197906E+01 2.384980469E+02
 1.805342674E+01 2.384986877E+02
 1.855605316E+01 2.388739777E+02
 1.855748177E+01 2.388754883E+02
 1.905640602E+01 2.391576080E+02
 1.905768204E+01 2.391574707E+02
 1.955064964E+01 2.397387238E+02
 1.955177116E+01 2.397407227E+02
 1.955351257E+01 2.397482300E+02
 2.003708839E+01 2.417941589E+02
 2.051359940E+01 2.429195709E+02
 2.051539230E+01 2.429235992E+02
 2.051655388E+01 2.429279327E+02
 2.099331093E+01 2.439681702E+02
 2.099452209E+01 2.439697266E+02
 2.147223663E+01 2.448634186E+02
 2.147349930E+01 2.448688354E+02
 2.195218658E+01 2.477931366E+02
 2.195347786E+01 2.478010406E+02
 2.243370247E+01 2.503388062E+02
 2.243507767E+01 2.503455963E+02
 2.291705132E+01 2.527561646E+02
 2.291842842E+01 2.527638397E+02
 2.340208054E+01 2.553909912E+02
 2.340345764E+01 2.553986816E+02
 2.388868523E+01 2.579360962E+02
 2.389006233E+01 2.579429321E+02
 2.437675476E+01 2.601207275E+02
 2.437813187E+01 2.601264954E+02
 2.486618233E+01 2.618365784E+02
 2.486755943E+01 2.618405762E+02
 2.535684967E+01 2.628820801E+02
 2.535822678E+01 2.628839722E+02
 2.584855270E+01 2.632281799E+02
 2.584992981E+01 2.632281494E+02
 2.634091568E+01 2.630046692E+02
 2.634229279E+01 2.630033875E+02
 2.683356285E+01 2.624752502E+02
 2.683493996E+01 2.624735413E+02
 2.732632065E+01 2.618664551E+02
 2.732769775E+01 2.618647156E+02
 2.781915474E+01 2.612379761E+02
 2.782053185E+01 2.612361755E+02
 2.831204987E+01 2.605451355E+02
 2.831342697E+01 2.605430298E+02
 2.880499077E+01 2.597020874E+02
 2.880636787E+01 2.596994629E+02
 2.929796410E+01 2.586823425E+02
 2.929934120E+01 2.586791992E+02
 2.979095078E+01 2.574837952E+02
 2.979232788E+01 2.574801941E+02
 3.028393745E+01 2.561528625E+02
 3.028531456E+01 2.561489258E+02
 3.077691078E+01 2.547054443E+02
 3.077828789E+01 2.547012177E+02
 3.126985168E+01 2.531815186E+02
 3.127122879E+01 2.531771088E+02
 3.176274681E+01 2.516157684E+02
 3.176412392E+01 2.516113281E+02
 3.225550079E+01 2.500598297E+02
 3.225688171E+01 2.500554810E+02
 3.274657440E+01 2.485716858E+02
 3.274795532E+01 2.485674744E+02
 3.323297119E+01 2.471539154E+02
 3.323434830E+01 2.471499939E+02
 3.371272659E+01 2.458785248E+02
 3.371409988E+01 2.458748932E+02
 3.418891525E+01 2.447041321E+02
 3.419028473E+01 2.447010193E+02
 3.466219330E+01 2.437055817E+02
 3.466356659E+01 2.437028351E+02
 3.514063263E+01 2.428439026E+02
 3.514200592E+01 2.428416443E+02
 3.561892319E+01 2.420884857E+02
 3.562029648E+01 2.420865173E+02
 3.610167694E+01 2.414575806E+02
 3.610305405E+01 2.414558563E+02
 3.658761215E+01 2.408755798E+02
 3.658898544E+01 2.408740692E+02
 3.707643890E+01 2.403656921E+02
 3.707781601E+01 2.403643494E+02
 3.756911850E+01 2.399154510E+02
 3.757050323E+01 2.399142456E+02
 3.806361389E+01 2.395147095E+02
 3.806500244E+01 2.395136261E+02
 3.855880356E+01 2.391568298E+02
 3.856019211E+01 2.391558838E+02
 3.905428696E+01 2.388403473E+02
 3.905567551E+01 2.388395081E+02
 3.954992676E+01 2.385658722E+02
 3.955131531E+01 2.385651550E+02
 4.004563904E+01 2.383340454E+02
 4.004702759E+01 2.383334503E+02
 4.054135132E+01 2.381450653E+02
 4.054273987E+01 2.381445923E+02
 4.103698730E+01 2.379974060E+02
 4.103837585E+01 2.379970551E+02
 4.153246689E+01 2.378893585E+02
 4.153385544E+01 2.378891144E+02
 4.202771378E+01 2.378205414E+02
 4.202910233E+01 2.378204041E+02
 4.252264023E+01 2.377834320E+02
 4.252402878E+01 2.377833862E+02
 4.301712036E+01 2.377821960E+02
 4.301850510E+01 2.377822266E+02
 4.351100540E+01 2.377992554E+02
 4.351238632E+01 2.377993774E+02
 4.400408554E+01 2.378453674E+02
 4.400546646E+01 2.378455353E+02
 4.449540710E+01 2.379122314E+02
 4.449678802E+01 2.379124146E+02
 4.498326492E+01 2.379718628E+02
 4.498464584E+01 2.379720612E+02
 4.546616364E+01 2.380271301E+02
 4.546754456E+01 2.380271149E+02
 4.594249725E+01 2.380178680E+02
 4.594388962E+01 2.380179749E+02
 4.640906525E+01 2.381367340E+02
 4.641047668E+01 2.381372833E+02
 4.685234833E+01 2.384075775E+02
 4.685376358E+01 2.384087524E+02
 4.725297928E+01 2.387378693E+02
 4.725437927E+01 2.387389832E+02
 4.760521317E+01 2.389088287E+02
 4.760653687E+01 2.389095154E+02
 4.791468430E+01 2.393824463E+02
 4.791574097E+01 2.393851624E+02
 4.791753387E+01 2.393885193E+02
 4.818975449E+01 2.399823456E+02
 4.845335388E+01 2.395766449E+02
 4.845522690E+01 2.395727997E+02
 4.845679092E+01 2.395738678E+02
 4.872081375E+01 2.396143341E+02
 4.898848343E+01 2.401362457E+02
 4.899006653E+01 2.401409760E+02
 4.928739548E+01 2.400597534E+02
 4.928899765E+01 2.400576935E+02
 4.962395859E+01 2.397667999E+02
 4.962561035E+01 2.397642059E+02
 5.000339127E+01 2.396620026E+02
 5.000510788E+01 2.396632843E+02
 5.043003464E+01 2.402360687E+02
 5.043181992E+01 2.402383423E+02
 5.088584518E+01 2.406196594E+02
 5.088762665E+01 2.406209259E+02
 5.135446167E+01 2.409722290E+02
 5.135619354E+01 2.409735260E+02
 5.183018112E+01 2.413054962E+02
 5.183185959E+01 2.413067017E+02
 5.231418228E+01 2.417810516E+02
 5.231583405E+01 2.417826691E+02
 5.280453491E+01 2.427502899E+02
 5.280616760E+01 2.427561798E+02
 5.329605103E+01 2.434460449E+02
 5.329766083E+01 2.434456787E+02
 5.378783417E+01 2.436784210E+02
 5.378942871E+01 2.436798706E+02
 5.427983856E+01 2.444785767E+02
 5.428142548E+01 2.444816589E+02
 5.477203369E+01 2.452852783E+02
 5.477361298E+01 2.452876434E+02
 5.526432800E+01 2.461469879E+02
 5.526590729E+01 2.461491699E+02
 5.526748276E+01 2.461510162E+02
 5.575825119E+01 2.469214478E+02
 5.575982666E+01 2.469234161E+02
 5.625059891E+01 2.476157837E+02
 5.625217438E+01 2.476182709E+02
 5.674294281E+01 2.482724457E+02
 5.674451828E+01 2.482732544E+02
 5.723527527E+01 2.481839905E+02
 5.723684692E+01 2.481816559E+02
 5.772757721E+01 2.475046234E+02
 5.772914886E+01 2.475023041E+02
 5.821983719E+01 2.469365234E+02
 5.822141266E+01 2.469352112E+02
 5.871203995E+01 2.465660553E+02
 5.871361542E+01 2.465647125E+02
 5.920416641E+01 2.461358337E+02
 5.920574188E+01 2.461341095E+02
 5.969617844E+01 2.455744019E+02
 5.969775391E+01 2.455724182E+02
 6.018803787E+01 2.450224457E+02
 6.018961716E+01 2.450213013E+02
 6.067979431E+01 2.450619049E+02
 6.068137741E+01 2.450627594E+02
 6.117128754E+01 2.460298615E+02
 6.117287064E+01 2.460298920E+02
 6.166203308E+01 2.443962402E+02
 6.166362762E+01 2.443831329E+02
 6.215059280E+01 2.380097198E+02
 6.215220642E+01 2.379957428E+02
 6.264004135E+01 2.355106964E+02
 6.264166641E+01 2.355103149E+02
 6.312791443E+01 2.364698181E+02
 6.312952042E+01 2.364745636E+02
 6.360349655E+01 2.380474548E+02
 6.360504913E+01 2.380491333E+02
 6.405924225E+01 2.377195435E+02
 6.406076813E+01 2.377136688E+02
 6.450311279E+01 2.359492950E+02
 6.450464630E+01 2.359419098E+02
 6.494751740E+01 2.343700409E+02
 6.494908905E+01 2.343682098E+02
 6.540007019E+01 2.344730377E+02
 6.540167999E+01 2.344799957E+02
 6.586153412E+01 2.349789124E+02
 6.586315918E+01 2.349701996E+02
 6.632228851E+01 2.331631927E+02
 6.632394409E+01 2.331594543E+02
 6.678282928E+01 2.325938416E+02
 6.678452301E+01 2.325958710E+02
 6.724227905E+01 2.332828827E+02
 6.724401093E+01 2.332846069E+02
 6.769227600E+01 2.337953949E+02
 6.769402313E+01 2.337991333E+02
 6.812174225E+01 2.341539154E+02
 6.812346649E+01 2.341494598E+02
 6.852151489E+01 2.333092041E+02
 6.852319336E+01 2.333014832E+02
 6.888462830E+01 2.324969177E+02
 6.888626099E+01 2.325060577E+02
 6.921506500E+01 2.327166138E+02
 6.921664429E+01 2.327129822E+02
 6.951561737E+01 2.330094147E+02
 6.951715851E+01 2.330131531E+02
 6.979273987E+01 2.328739471E+02
 6.979424286E+01 2.328739929E+02
 7.005321503E+01 2.327007446E+02
 7.005471039E+01 2.326937714E+02
 7.030490875E+01 2.320809479E+02
 7.030641174E+01 2.320744476E+02
 7.055396271E+01 2.306514282E+02
 7.055548859E+01 2.306528320E+02
 7.080505371E+01 2.311116180E+02