TITLE     = "VTK Data"
VARIABLES = "X"
"Velocity_X"
ZONE T="Slice: Y=30.363 (region 1)"
 STRANDID=498, SOLUTIONTIME=772
 I=232, J=1, K=1, ZONETYPE=Ordered
 DATAPACKING=POINT
 DT=(SINGLE SINGLE )
 4.341058731E+01 1.934621277E+02
 4.341109848E+01 1.861092377E+02
 4.341128540E+01 1.833140106E+02
 4.340359879E+01 1.852744446E+02
 4.337231445E+01 1.959002075E+02
 4.335936356E+01 1.932873535E+02
 4.333316040E+01 1.872621460E+02
 4.331089401E+01 1.867990570E+02
 4.329438400E+01 1.863292542E+02
 4.325768661E+01 1.855963745E+02
 4.325638962E+01 1.855692902E+02
 4.325461578E+01 1.855871277E+02
 4.321967316E+01 1.861066437E+02
 4.317515564E+01 1.871876526E+02
 4.317211533E+01 1.872736053E+02
 4.316920090E+01 1.873496399E+02
 4.312709045E+01 1.883292389E+02
 4.309296799E+01 1.894491730E+02
 4.308317947E+01 1.897879486E+02
 4.306183243E+01 1.906836700E+02
 4.303688049E+01 1.917195282E+02
 4.302783585E+01 1.921241150E+02
 4.298541260E+01 1.940121765E+02
 4.296541977E+01 1.948544464E+02
 4.293380356E+01 1.962451782E+02
 4.291033936E+01 1.972974396E+02
 4.288478851E+01 1.985962830E+02
 4.286123276E+01 1.998929443E+02
 4.283510971E+01 2.012476501E+02
 4.280779266E+01 2.026866302E+02
 4.278020096E+01 2.040758820E+02
 4.275009537E+01 2.056957092E+02
 4.271782684E+01 2.075284271E+02
 4.268260574E+01 2.095320282E+02
 4.264025879E+01 2.118732910E+02
 4.259318924E+01 2.144704132E+02
 4.257044983E+01 2.157273407E+02
 4.252027512E+01 2.185725708E+02
 4.250834656E+01 2.192507019E+02
 4.250259781E+01 2.195648041E+02
 4.244237137E+01 2.229258270E+02
 4.238723373E+01 2.260246887E+02
 4.238472748E+01 2.261631012E+02
 4.232148743E+01 2.295705414E+02
 4.230847168E+01 2.302574310E+02
 4.223969650E+01 2.336352539E+02
 4.216907883E+01 2.370833435E+02
 4.214906311E+01 2.380260010E+02
 4.212623215E+01 2.390433960E+02
 4.205681992E+01 2.421397552E+02
 4.196432495E+01 2.459047241E+02
 4.195742798E+01 2.461829529E+02
 4.195448685E+01 2.462777710E+02
 4.194545364E+01 2.465788422E+02
 4.185538483E+01 2.496235046E+02
 4.177130890E+01 2.517207336E+02
 4.175624847E+01 2.521244354E+02
 4.167423630E+01 2.539743652E+02
 4.164780045E+01 2.545610199E+02
 4.164367676E+01 2.546328278E+02
 4.154513168E+01 2.564700623E+02
 4.152764511E+01 2.566032104E+02
 4.145134354E+01 2.571788025E+02
 4.141039658E+01 2.572518616E+02
 4.136504364E+01 2.573829651E+02
 4.130767441E+01 2.573226013E+02
 4.129851532E+01 2.573139343E+02
 4.122742081E+01 2.567268677E+02
 4.121710587E+01 2.566737366E+02
 4.112616730E+01 2.559721680E+02
 4.112059784E+01 2.559369202E+02
 4.110194016E+01 2.556512146E+02
 4.103518295E+01 2.546739044E+02
 4.101756287E+01 2.543150482E+02
 4.099319458E+01 2.539289551E+02
 4.095149231E+01 2.533214111E+02
 4.091236496E+01 2.523826904E+02
 4.089247513E+01 2.519032135E+02
 4.086731339E+01 2.512725372E+02
 4.083230209E+01 2.503592682E+02
 4.079336548E+01 2.493637390E+02
 4.078772354E+01 2.492127075E+02
 4.073897171E+01 2.475666199E+02
 4.073619461E+01 2.474850769E+02
 4.068210220E+01 2.456076660E+02
 4.067549133E+01 2.453778534E+02
 4.062752914E+01 2.435656586E+02
 4.061598969E+01 2.431406403E+02
 4.057449341E+01 2.414649506E+02
 4.055965805E+01 2.408588104E+02
 4.052371216E+01 2.390137024E+02
 4.050901413E+01 2.382624969E+02
 4.047953415E+01 2.364528351E+02
 4.046090317E+01 2.353037262E+02
 4.044359207E+01 2.337977905E+02
 4.042060471E+01 2.318099976E+02
 4.040194321E+01 2.291779785E+02
 4.038699341E+01 2.271197510E+02
 4.037840652E+01 2.250308380E+02
 4.035912323E+01 2.204512482E+02
 4.035710907E+01 2.195889893E+02
 4.034849930E+01 2.159899445E+02
 4.033852005E+01 2.117985840E+02
 4.033615494E+01 2.108277740E+02
 4.032242203E+01 2.008268433E+02
 4.031744766E+01 1.972805939E+02
 4.030850983E+01 1.864195862E+02
 4.030245590E+01 1.792194977E+02
 4.029680634E+01 1.680256348E+02
 4.029076004E+01 1.562893066E+02
 4.028733826E+01 1.456895905E+02
 4.028210068E+01 1.297124786E+02
 4.027809906E+01 1.118174973E+02
 4.027624893E+01 1.034564133E+02
 4.027391052E+01 9.034283447E+01
 4.027296829E+01 8.502409363E+01
 4.027214813E+01 8.170503235E+01
 4.027182770E+01 8.040315247E+01
 4.027201462E+01 8.412317657E+01
 4.027247620E+01 9.314543915E+01
 4.027344894E+01 1.026531296E+02
 4.027551651E+01 1.225806656E+02
 4.027777863E+01 1.371286774E+02
 4.028139496E+01 1.601370392E+02
 4.028571701E+01 1.772047424E+02
 4.029021072E+01 1.948373260E+02
 4.029782867E+01 2.121596375E+02
 4.030207825E+01 2.217726440E+02
 4.031496811E+01 2.375368347E+02
 4.031723785E+01 2.402926788E+02
 4.032750702E+01 2.468071289E+02
 4.033604813E+01 2.522469482E+02
 4.033925629E+01 2.533302765E+02
 4.035904694E+01 2.599400024E+02
 4.037448120E+01 2.627523499E+02
 4.038688278E+01 2.649895935E+02
 4.041243744E+01 2.676763611E+02
 4.042039490E+01 2.685211182E+02
 4.042749786E+01 2.690057373E+02
 4.046054840E+01 2.712443237E+02
 4.049757767E+01 2.730635071E+02
 4.050846863E+01 2.735978394E+02
 4.055144501E+01 2.753782043E+02
 4.056201935E+01 2.758324280E+02
 4.060192108E+01 2.772283020E+02
 4.061736298E+01 2.778089905E+02
 4.065229034E+01 2.788756104E+02
 4.067446899E+01 2.795834656E+02
 4.070531845E+01 2.805975647E+02
 4.073505783E+01 2.814513550E+02
 4.075941849E+01 2.820435791E+02
 4.079740906E+01 2.830420227E+02
 4.081863022E+01 2.835180359E+02
 4.085429764E+01 2.845078430E+02
 4.088983536E+01 2.852402344E+02
 4.091015625E+01 2.856304321E+02
 4.092701721E+01 2.859657898E+02
 4.098060608E+01 2.871880798E+02
 4.101671982E+01 2.879894714E+02
 4.104528427E+01 2.886352539E+02
 4.106880951E+01 2.891363525E+02
 4.112180328E+01 2.903155212E+02
 4.117238998E+01 2.916111450E+02
 4.119317627E+01 2.921990662E+02
 4.123980713E+01 2.933927612E+02
 4.126271820E+01 2.939804688E+02
 4.127458954E+01 2.942833862E+02
 4.133501816E+01 2.957274780E+02
 4.142089081E+01 2.978889771E+02
 4.142231369E+01 2.979254761E+02
 4.142299271E+01 2.979436340E+02
 4.142525864E+01 2.979962158E+02
 4.151611328E+01 3.000760803E+02
 4.158208084E+01 3.013028564E+02
 4.160622787E+01 3.017599487E+02
 4.168467331E+01 3.031743469E+02
 4.169805527E+01 3.034028320E+02
 4.178553391E+01 3.038489380E+02
 4.178762436E+01 3.038087769E+02
 4.180065155E+01 3.033669739E+02
 4.188889694E+01 3.003524170E+02
 4.190209961E+01 2.999580078E+02
 4.201991653E+01 2.948706970E+02
 4.203735352E+01 2.942212219E+02
 4.205664062E+01 2.935159912E+02
 4.213838577E+01 2.907123108E+02
 4.215551758E+01 2.901987000E+02
 4.221924591E+01 2.885211487E+02
 4.226875305E+01 2.876303101E+02
 4.230139160E+01 2.869096680E+02
 4.234154510E+01 2.860371704E+02
 4.238228989E+01 2.844122009E+02
 4.241969299E+01 2.828738403E+02
 4.248001862E+01 2.801213684E+02
 4.249972153E+01 2.791241760E+02
 4.255442047E+01 2.764620667E+02
 4.257698441E+01 2.753180237E+02
 4.262275696E+01 2.728594055E+02
 4.264976120E+01 2.714486084E+02
 4.268606949E+01 2.696807861E+02
 4.273177719E+01 2.674317932E+02
 4.273273849E+01 2.673849182E+02
 4.273413849E+01 2.673141785E+02
 4.277856445E+01 2.650789795E+02
 4.279974747E+01 2.640019836E+02
 4.283203506E+01 2.624209595E+02
 4.285420990E+01 2.613695679E+02
 4.288606262E+01 2.599634094E+02
 4.290695953E+01 2.590277405E+02
 4.294454575E+01 2.575178833E+02
 4.295252991E+01 2.572107544E+02
 4.296304703E+01 2.568903198E+02
 4.299750137E+01 2.558093414E+02
 4.301816559E+01 2.552519226E+02
 4.304623413E+01 2.545950623E+02
 4.308037567E+01 2.539648285E+02
 4.309364319E+01 2.537097015E+02
 4.311157227E+01 2.534211884E+02
 4.314378357E+01 2.530312195E+02
 4.315737534E+01 2.528245850E+02
 4.320198441E+01 2.525518188E+02
 4.320656586E+01 2.525236511E+02
 4.320914078E+01 2.524504700E+02
 4.324816132E+01 2.509441833E+02
 4.327779007E+01 2.509204559E+02
 4.328717041E+01 2.508726349E+02
 4.330955124E+01 2.480928497E+02
 4.332702637E+01 2.458343048E+02
 4.333243942E+01 2.457553558E+02
 4.336916351E+01 2.448216705E+02
 4.338221359E+01 2.270518799E+02
 4.341058731E+01 1.934621277E+02
