TITLE     = "VTK Data"
VARIABLES = "X"
"Velocity_X"
ZONE T="Slice: Y=8.93 (region 3)"
 STRANDID=366, SOLUTIONTIME=772
 I=267, J=1, K=1, ZONETYPE=Ordered
 DATAPACKING=POINT
 DT=(SINGLE SINGLE )
 3.427171707E+01 2.063189392E+02
 3.427136612E+01 1.892335968E+02
 3.427131271E+01 1.865928192E+02
 3.423331070E+01 1.852418976E+02
 3.406568146E+01 1.780695648E+02
 3.396186829E+01 1.791516571E+02
 3.384087372E+01 1.803676758E+02
 3.373824692E+01 1.793773804E+02
 3.366021729E+01 1.797543945E+02
 3.353139877E+01 1.837200470E+02
 3.348350525E+01 1.847908630E+02
 3.339048004E+01 1.863892365E+02
 3.335721207E+01 1.868661346E+02
 3.333703613E+01 1.874427795E+02
 3.324789810E+01 1.898683777E+02
 3.316383362E+01 1.918013306E+02
 3.310551834E+01 1.931754913E+02
 3.302529526E+01 1.948494415E+02
 3.296511078E+01 1.961062164E+02
 3.292929459E+01 1.968456726E+02
 3.285054398E+01 1.986098022E+02
 3.283083725E+01 1.990720215E+02
 3.276180649E+01 2.007464447E+02
 3.267448044E+01 2.027683868E+02
 3.263769150E+01 2.035911102E+02
 3.261030960E+01 2.042600708E+02
 3.249935532E+01 2.069553833E+02
 3.244327545E+01 2.083036346E+02
 3.235018921E+01 2.107109222E+02
 3.228154373E+01 2.125192413E+02
 3.220448685E+01 2.146520996E+02
 3.216457748E+01 2.157453918E+02
 3.206447983E+01 2.186714630E+02
 3.200347519E+01 2.204017944E+02
 3.185647202E+01 2.248714600E+02
 3.181337738E+01 2.261434479E+02
 3.164167595E+01 2.317191162E+02
 3.163181114E+01 2.320238495E+02
 3.160872841E+01 2.327508240E+02
 3.144310760E+01 2.379157104E+02
 3.124842262E+01 2.434941406E+02
 3.120893860E+01 2.446240845E+02
 3.119594193E+01 2.449626770E+02
 3.114065933E+01 2.463230591E+02
 3.088052940E+01 2.527064667E+02
 3.081127739E+01 2.543394470E+02
 3.057336998E+01 2.593358459E+02
 3.047068977E+01 2.611540222E+02
 3.026417542E+01 2.642438965E+02
 3.016710281E+01 2.654358215E+02
 2.996080399E+01 2.676891785E+02
 2.991227150E+01 2.681240540E+02
 2.974339485E+01 2.691107178E+02
 2.970545578E+01 2.693581543E+02
 2.969497681E+01 2.693817139E+02
 2.950849342E+01 2.695521851E+02
 2.944426346E+01 2.695537109E+02
 2.933551025E+01 2.696281128E+02
 2.922139359E+01 2.693132935E+02
 2.918626595E+01 2.692151184E+02
 2.908558655E+01 2.686161804E+02
 2.905829811E+01 2.684823914E+02
 2.904995728E+01 2.684179077E+02
 2.893342972E+01 2.674753113E+02
 2.890002823E+01 2.671533203E+02
 2.882196426E+01 2.663399658E+02
 2.876785660E+01 2.656558228E+02
 2.871936417E+01 2.650351868E+02
 2.862446404E+01 2.635601196E+02
 2.860545540E+01 2.632704468E+02
 2.858898926E+01 2.629884644E+02
 2.847388458E+01 2.611573486E+02
 2.843547630E+01 2.604451599E+02
 2.834765244E+01 2.591011353E+02
 2.829168320E+01 2.581816406E+02
 2.822946739E+01 2.573668823E+02
 2.813922119E+01 2.557623749E+02
 2.812919998E+01 2.555930634E+02
 2.812121010E+01 2.554831390E+02
 2.802303314E+01 2.542423401E+02
 2.797159958E+01 2.536666107E+02
 2.794315720E+01 2.533404083E+02
 2.788983727E+01 2.527155914E+02
 2.786816978E+01 2.524421082E+02
 2.785871887E+01 2.523527222E+02
 2.778352165E+01 2.515933075E+02
 2.777488899E+01 2.514804077E+02
 2.776153946E+01 2.513847809E+02
 2.769765663E+01 2.510273132E+02
 2.763509178E+01 2.512197876E+02
 2.762445831E+01 2.512538605E+02
 2.761380959E+01 2.513059845E+02
 2.756848335E+01 2.514618378E+02
 2.753816414E+01 2.516192932E+02
 2.751915550E+01 2.517054291E+02
 2.750512123E+01 2.518765717E+02
 2.745799637E+01 2.524635162E+02
 2.743655968E+01 2.527902374E+02
 2.740053749E+01 2.534586487E+02
 2.737920761E+01 2.538808594E+02
 2.735343933E+01 2.544102325E+02
 2.733320236E+01 2.549034729E+02
 2.731583214E+01 2.553038330E+02
 2.728564072E+01 2.561479187E+02
 2.727397346E+01 2.565032349E+02
 2.724809074E+01 2.572813721E+02
 2.722972870E+01 2.579292297E+02
 2.719150162E+01 2.596002808E+02
 2.717928505E+01 2.601911621E+02
 2.716214180E+01 2.613531799E+02
 2.713097191E+01 2.632749023E+02
 2.708351135E+01 2.668125610E+02
 2.707585144E+01 2.672755127E+02
 2.705021477E+01 2.682473145E+02
 2.701926231E+01 2.695828857E+02
 2.701157379E+01 2.697121887E+02
 2.697095680E+01 2.697911682E+02
 2.695808220E+01 2.698297424E+02
 2.694889450E+01 2.695383301E+02
 2.690730476E+01 2.681679077E+02
 2.689773178E+01 2.677014771E+02
 2.687778473E+01 2.668273315E+02
 2.685180092E+01 2.657196655E+02
 2.682439041E+01 2.641147766E+02
 2.679154396E+01 2.619527588E+02
 2.675074768E+01 2.600132751E+02
 2.671665001E+01 2.579862671E+02
 2.667516518E+01 2.558069611E+02
 2.658666229E+01 2.510308380E+02
 2.657135201E+01 2.502562408E+02
 2.656000328E+01 2.497530670E+02
 2.642868614E+01 2.437445831E+02
 2.639057922E+01 2.421405029E+02
 2.627740669E+01 2.365045471E+02
 2.623080254E+01 2.344853821E+02
 2.614210510E+01 2.298233795E+02
 2.609185028E+01 2.270341339E+02
 2.604450226E+01 2.242942505E+02
 2.597546196E+01 2.202893982E+02
 2.593866158E+01 2.175292358E+02
 2.587831306E+01 2.129590302E+02
 2.581116486E+01 2.061841431E+02
 2.579753876E+01 2.047997437E+02
 2.576324844E+01 1.997070007E+02
 2.573083878E+01 1.947900543E+02
 2.572320938E+01 1.929866943E+02
 2.567623138E+01 1.818941803E+02
 2.566050911E+01 1.761529541E+02
 2.563222313E+01 1.657011719E+02
 2.561542130E+01 1.560702820E+02
 2.559769058E+01 1.460854187E+02
 2.558759117E+01 1.371499481E+02
 2.557190514E+01 1.234938507E+02
 2.555969620E+01 1.084742737E+02
 2.555451965E+01 1.021587753E+02
 2.554759598E+01 9.339768982E+01
 2.554519081E+01 9.039268494E+01
 2.554343796E+01 9.238824463E+01
 2.554286766E+01 9.314698029E+01
 2.554345512E+01 9.698758698E+01
 2.554528046E+01 1.083532639E+02
 2.554723740E+01 1.150688324E+02
 2.555284309E+01 1.337631989E+02
 2.555715370E+01 1.442723236E+02
 2.556744385E+01 1.688802643E+02
 2.557579422E+01 1.831759796E+02
 2.559050941E+01 2.079658813E+02
 2.560577011E+01 2.253010101E+02
 2.562308502E+01 2.446843262E+02
 2.565000153E+01 2.640266724E+02
 2.566613388E+01 2.754895935E+02
 2.571242142E+01 2.954836121E+02
 2.572080040E+01 2.990794678E+02
 2.575551987E+01 3.075367737E+02
 2.578857040E+01 3.156079102E+02
 2.580246353E+01 3.173631897E+02
 2.587130737E+01 3.261296692E+02
 2.593612099E+01 3.299384460E+02
 2.597114944E+01 3.320680237E+02
 2.603285599E+01 3.335060120E+02
 2.609097672E+01 3.347445679E+02
 2.615829277E+01 3.350359802E+02
 2.623402405E+01 3.354745178E+02
 2.627117729E+01 3.352067566E+02
 2.638883591E+01 3.340340881E+02
 2.641961670E+01 3.337020569E+02
 2.654112244E+01 3.325948486E+02
 2.657604980E+01 3.324130859E+02
 2.668647003E+01 3.317330017E+02
 2.674933243E+01 3.315709534E+02
 2.684286499E+01 3.318443604E+02
 2.691492271E+01 3.280056152E+02
 2.698557663E+01 3.253891296E+02
 2.709007835E+01 3.070534973E+02
 2.712422371E+01 3.010881042E+02
 2.721000671E+01 2.841106873E+02
 2.725751495E+01 2.752268677E+02
 2.728273773E+01 2.739970398E+02
 2.738397408E+01 2.673565674E+02
 2.749496078E+01 2.714970703E+02
 2.751329613E+01 2.723605652E+02
 2.756463432E+01 2.755664673E+02
 2.766101265E+01 2.817522278E+02
 2.768153763E+01 2.829131775E+02
 2.771735001E+01 2.846108704E+02
 2.784362030E+01 2.906860046E+02
 2.794870758E+01 2.947025146E+02
 2.798704338E+01 2.960301514E+02
 2.814501762E+01 2.994476929E+02
 2.816548347E+01 2.998373413E+02
 2.819745636E+01 3.002446594E+02
 2.836246872E+01 3.024293213E+02
 2.853704643E+01 3.034929504E+02
 2.855613518E+01 3.035653076E+02
 2.857784271E+01 3.034480591E+02
 2.876105118E+01 3.027740784E+02
 2.883605576E+01 3.023540039E+02
 2.897572517E+01 3.007729797E+02
 2.902684975E+01 2.999963989E+02
 2.917762947E+01 2.966905518E+02
 2.925973892E+01 2.947487183E+02
 2.947039032E+01 2.904999695E+02
 2.948463631E+01 2.902242737E+02
 2.949482727E+01 2.901068420E+02
 2.970096588E+01 2.874637146E+02
 2.987290382E+01 2.863832703E+02
 2.993246841E+01 2.860490417E+02
 3.018751144E+01 2.850599976E+02
 3.020654297E+01 2.849736023E+02
 3.049015617E+01 2.835706482E+02
 3.066338539E+01 2.824732361E+02
 3.082030487E+01 2.814987183E+02
 3.099879265E+01 2.802983398E+02
 3.113736916E+01 2.792312317E+02
 3.131529045E+01 2.775400085E+02
 3.142422295E+01 2.765422058E+02
 3.148099136E+01 2.758303528E+02
 3.166257286E+01 2.731165161E+02
 3.179011154E+01 2.707635498E+02
 3.193184280E+01 2.678178101E+02
 3.209223938E+01 2.645313110E+02
 3.220262909E+01 2.622281494E+02
 3.231510162E+01 2.597524109E+02
 3.246394730E+01 2.565337219E+02
 3.251639938E+01 2.553987274E+02
 3.267658997E+01 2.521499329E+02
 3.269203568E+01 2.518372650E+02
 3.269786072E+01 2.517376862E+02
 3.285688782E+01 2.489560547E+02
 3.295088196E+01 2.476445465E+02
 3.302478409E+01 2.465331116E+02
 3.306868744E+01 2.459640656E+02
 3.319724274E+01 2.446678772E+02
 3.320161438E+01 2.446278687E+02
 3.320793915E+01 2.445697174E+02
 3.331238556E+01 2.437910614E+02
 3.337305069E+01 2.436374664E+02
 3.341314697E+01 2.433090973E+02
 3.350268173E+01 2.424306183E+02
 3.358256531E+01 2.421630249E+02
 3.367963409E+01 2.419375458E+02
 3.385775375E+01 2.368109283E+02
 3.388968658E+01 2.359453278E+02
 3.397682190E+01 2.339601898E+02
 3.408605957E+01 2.315595703E+02
 3.412908554E+01 2.258977356E+02
 3.427171707E+01 2.063189392E+02
