TITLE     = "VTK Data"
VARIABLES = "X"
"Velocity_X"
ZONE T="Slice: Y=26.466 (region 1)"
 STRANDID=474, SOLUTIONTIME=772
 I=197, J=1, K=1, ZONETYPE=Ordered
 DATAPACKING=POINT
 DT=(SINGLE SINGLE )
 4.159345245E+01 1.928133545E+02
 4.159353256E+01 1.910171661E+02
 4.159394455E+01 1.818562317E+02
 4.156922531E+01 1.795198517E+02
 4.153619766E+01 1.762965240E+02
 4.149948883E+01 1.745442047E+02
 4.146852875E+01 1.731550293E+02
 4.142680359E+01 1.719680634E+02
 4.139448929E+01 1.709669495E+02
 4.135779190E+01 1.719520111E+02
 4.132875824E+01 1.728202667E+02
 4.129541397E+01 1.735358734E+02
 4.125281143E+01 1.750753632E+02
 4.122727585E+01 1.756705933E+02
 4.119654465E+01 1.770912170E+02
 4.116198349E+01 1.785630798E+02
 4.112659836E+01 1.801639404E+02
 4.109828568E+01 1.814404449E+02
 4.102571869E+01 1.848434448E+02
 4.102042007E+01 1.850936890E+02
 4.101935959E+01 1.851454315E+02
 4.101580048E+01 1.853196564E+02
 4.093768311E+01 1.891716461E+02
 4.089958191E+01 1.910863800E+02
 4.087165833E+01 1.925239563E+02
 4.078371429E+01 1.969617157E+02
 4.077516937E+01 1.974007263E+02
 4.075948715E+01 1.982133331E+02
 4.067956924E+01 2.023308868E+02
 4.058644485E+01 2.073791504E+02
 4.057191467E+01 2.081582031E+02
 4.055837631E+01 2.088891296E+02
 4.042956161E+01 2.156208038E+02
 4.033874893E+01 2.200972290E+02
 4.028760529E+01 2.225092621E+02
 4.021645737E+01 2.257929688E+02
 4.014719391E+01 2.290115051E+02
 4.008753586E+01 2.314434814E+02
 4.000215912E+01 2.348490295E+02
 3.995913315E+01 2.361764069E+02
 3.980396652E+01 2.407093964E+02
 3.977871323E+01 2.412594147E+02
 3.974720383E+01 2.419987335E+02
 3.959661102E+01 2.457052460E+02
 3.952011871E+01 2.471881104E+02
 3.946938705E+01 2.480259399E+02
 3.937705612E+01 2.488272095E+02
 3.929994583E+01 2.496283875E+02
 3.920764160E+01 2.503205719E+02
 3.913741684E+01 2.508586273E+02
 3.906595993E+01 2.511397552E+02
 3.896840286E+01 2.514367828E+02
 3.893034363E+01 2.514647217E+02
 3.888331604E+01 2.514602051E+02
 3.881998444E+01 2.515459290E+02
 3.874358749E+01 2.510969238E+02
 3.871051788E+01 2.509115753E+02
 3.869166565E+01 2.507315826E+02
 3.857838440E+01 2.500048828E+02
 3.856590271E+01 2.498789520E+02
 3.850659943E+01 2.492888184E+02
 3.846534729E+01 2.488783875E+02
 3.845667648E+01 2.487856293E+02
 3.838144302E+01 2.476781006E+02
 3.834692001E+01 2.471510925E+02
 3.830438995E+01 2.463229980E+02
 3.825141907E+01 2.451623383E+02
 3.821850586E+01 2.443501129E+02
 3.814447021E+01 2.427290649E+02
 3.813360977E+01 2.424104004E+02
 3.806178665E+01 2.403147125E+02
 3.805229950E+01 2.400375977E+02
 3.805088425E+01 2.399948730E+02
 3.797216797E+01 2.370705566E+02
 3.796269608E+01 2.367293854E+02
 3.791873169E+01 2.346598816E+02
 3.788727188E+01 2.331822357E+02
 3.787100983E+01 2.321456299E+02
 3.783256912E+01 2.297340698E+02
 3.782694626E+01 2.293784485E+02
 3.782457352E+01 2.292302551E+02
 3.778806686E+01 2.258861694E+02
 3.777256012E+01 2.244787750E+02
 3.775254440E+01 2.216013031E+02
 3.772956467E+01 2.183229828E+02
 3.772056580E+01 2.161685944E+02
 3.769417572E+01 2.098864288E+02
 3.769220352E+01 2.090749664E+02
 3.768165588E+01 2.047558594E+02
 3.766787720E+01 1.991046295E+02
 3.766529846E+01 1.980514679E+02
 3.764720917E+01 1.853215332E+02
 3.764207077E+01 1.817195282E+02
 3.762984467E+01 1.672278595E+02
 3.762383270E+01 1.601244354E+02
 3.761582184E+01 1.447285614E+02
 3.761014557E+01 1.338562927E+02
 3.760522461E+01 1.195432739E+02
 3.760076904E+01 1.066120300E+02
 3.759805298E+01 9.631326294E+01
 3.759546661E+01 8.645818329E+01
 3.759455490E+01 8.362950897E+01
 3.759372330E+01 8.105518341E+01
 3.759414673E+01 8.625424957E+01
 3.759459686E+01 9.174070740E+01
 3.759666824E+01 1.051281967E+02
 3.759860611E+01 1.176096115E+02
 3.760327148E+01 1.390738983E+02
 3.760669327E+01 1.547734375E+02
 3.761524200E+01 1.810233612E+02
 3.761934280E+01 1.936038818E+02
 3.763370514E+01 2.208211212E+02
 3.763684082E+01 2.267734833E+02
 3.765728760E+01 2.492138367E+02
 3.765959549E+01 2.517441711E+02
 3.766023254E+01 2.521164093E+02
 3.768819046E+01 2.685299377E+02
 3.769919205E+01 2.716629333E+02
 3.772346878E+01 2.786058350E+02
 3.775425720E+01 2.825180054E+02
 3.776648331E+01 2.840760193E+02
 3.779330063E+01 2.855574646E+02
 3.781862259E+01 2.869485168E+02
 3.784006882E+01 2.875092468E+02
 3.788157654E+01 2.885823059E+02
 3.793098450E+01 2.893473206E+02
 3.795735168E+01 2.897487183E+02
 3.802048111E+01 2.905391235E+02
 3.804582977E+01 2.908554077E+02
 3.810014343E+01 2.913913269E+02
 3.813928223E+01 2.918007812E+02
 3.818364334E+01 2.921494751E+02
 3.824154282E+01 2.927446594E+02
 3.826934433E+01 2.931152039E+02
 3.835182571E+01 2.937705688E+02
 3.835624313E+01 2.937991333E+02
 3.836036301E+01 2.938494873E+02
 3.843933868E+01 2.949360046E+02
 3.845429611E+01 2.950566711E+02
 3.850833511E+01 2.953970947E+02
 3.856267166E+01 2.956620178E+02
 3.860920715E+01 2.957420959E+02
 3.869414139E+01 2.960522461E+02
 3.872271729E+01 2.961791992E+02
 3.881862640E+01 2.966248474E+02
 3.884380722E+01 2.967421875E+02
 3.894191360E+01 2.972979126E+02
 3.897617722E+01 2.974879150E+02
 3.907977676E+01 2.978728638E+02
 3.909746170E+01 2.979190369E+02
 3.921972275E+01 2.983205261E+02
 3.922431183E+01 2.983426208E+02
 3.935126114E+01 2.991600952E+02
 3.937167740E+01 2.993722229E+02
 3.948102951E+01 3.003362427E+02
 3.951147461E+01 3.006854248E+02
 3.962818909E+01 3.020531921E+02
 3.968567276E+01 3.028949890E+02
 3.977291107E+01 3.040966797E+02
 3.993460846E+01 3.064657593E+02
 3.993507385E+01 3.064721985E+02
 3.993531799E+01 3.064763489E+02
 4.010142899E+01 3.091022644E+02
 4.013656235E+01 3.092698975E+02
 4.026765442E+01 3.099288330E+02
 4.026988602E+01 3.098763428E+02
 4.039159393E+01 3.065425110E+02
 4.043872452E+01 3.044137268E+02
 4.054525757E+01 2.986033020E+02
 4.055703735E+01 2.977247925E+02
 4.057451630E+01 2.964442444E+02
 4.066556549E+01 2.897677612E+02
 4.075177383E+01 2.839410095E+02
 4.076211548E+01 2.833063354E+02
 4.076929855E+01 2.829714355E+02
 4.085722351E+01 2.785885620E+02
 4.090427780E+01 2.767639465E+02
 4.094179153E+01 2.752173767E+02
 4.097890091E+01 2.742533264E+02
 4.102476883E+01 2.728906555E+02
 4.108876801E+01 2.716209717E+02
 4.109024048E+01 2.716031189E+02
 4.110064697E+01 2.715605774E+02
 4.115819931E+01 2.713206177E+02
 4.116374207E+01 2.713001099E+02
 4.123094559E+01 2.720625305E+02
 4.124316025E+01 2.721718140E+02
 4.130620193E+01 2.717002563E+02
 4.132323837E+01 2.716102295E+02
 4.138229752E+01 2.710190125E+02
 4.140021515E+01 2.708108215E+02
 4.145661545E+01 2.633044128E+02
 4.147156143E+01 2.612457581E+02
 4.153024673E+01 2.510886993E+02
 4.153738785E+01 2.498622284E+02
 4.156997681E+01 2.166881256E+02
 4.159345245E+01 1.928133545E+02
