TITLE     = "VTK Data"
VARIABLES = "X"
"Velocity_X"
ZONE T="Slice: Y=14.451 (region 1)"
 STRANDID=400, SOLUTIONTIME=772
 I=210, J=1, K=1, ZONETYPE=Ordered
 DATAPACKING=POINT
 DT=(SINGLE SINGLE )
 3.599113083E+01 2.011766052E+02
 3.599116898E+01 1.919154205E+02
 3.599119949E+01 1.845245361E+02
 3.590834045E+01 1.755846863E+02
 3.589480591E+01 1.735278015E+02
 3.579050446E+01 1.720811005E+02
 3.578369904E+01 1.720372772E+02
 3.566809845E+01 1.704981384E+02
 3.566454697E+01 1.704409027E+02
 3.554201508E+01 1.733892670E+02
 3.553738403E+01 1.734915771E+02
 3.540498352E+01 1.758401337E+02
 3.539832687E+01 1.759233856E+02
 3.538882446E+01 1.762437897E+02
 3.528142929E+01 1.796381073E+02
 3.521974945E+01 1.816109619E+02
 3.515621567E+01 1.834875031E+02
 3.506952286E+01 1.861278381E+02
 3.506074142E+01 1.864169922E+02
 3.494833374E+01 1.902221680E+02
 3.493293381E+01 1.907424622E+02
 3.481556320E+01 1.945692596E+02
 3.478832626E+01 1.954971771E+02
 3.469014740E+01 1.988414307E+02
 3.460461044E+01 2.016771545E+02
 3.453466034E+01 2.040546417E+02
 3.438211441E+01 2.093084869E+02
 3.437300491E+01 2.096260071E+02
 3.436605453E+01 2.098776093E+02
 3.417889023E+01 2.164215393E+02
 3.412709427E+01 2.181763763E+02
 3.394929504E+01 2.244239960E+02
 3.393782806E+01 2.248130493E+02
 3.390690613E+01 2.258604126E+02
 3.374628830E+01 2.313773956E+02
 3.368177795E+01 2.335160522E+02
 3.354420471E+01 2.378935547E+02
 3.343199158E+01 2.414654236E+02
 3.329864883E+01 2.447647095E+02
 3.322334290E+01 2.466287689E+02
 3.316493607E+01 2.479830780E+02
 3.296399689E+01 2.522899933E+02
 3.289011383E+01 2.538170319E+02
 3.270522308E+01 2.566839294E+02
 3.261850739E+01 2.578847656E+02
 3.245055389E+01 2.593858948E+02
 3.232528305E+01 2.606365967E+02
 3.220685959E+01 2.612866821E+02
 3.208626938E+01 2.621447144E+02
 3.199694824E+01 2.622211609E+02
 3.192632294E+01 2.621451416E+02
 3.175108147E+01 2.616252747E+02
 3.173594093E+01 2.616064453E+02
 3.171455383E+01 2.615632629E+02
 3.156831169E+01 2.611190186E+02
 3.143378830E+01 2.601104431E+02
 3.140970039E+01 2.599389038E+02
 3.139200401E+01 2.597354126E+02
 3.122791481E+01 2.584355469E+02
 3.120329285E+01 2.582251892E+02
 3.107883072E+01 2.570260620E+02
 3.107578468E+01 2.569804993E+02
 3.095231247E+01 2.550566254E+02
 3.091254044E+01 2.543922577E+02
 3.081434250E+01 2.529344635E+02
 3.076621819E+01 2.522320404E+02
 3.073719597E+01 2.517594910E+02
 3.063712120E+01 2.500018616E+02
 3.054865456E+01 2.482729340E+02
 3.054268074E+01 2.481353302E+02
 3.042733574E+01 2.452440948E+02
 3.042651749E+01 2.452238159E+02
 3.042266273E+01 2.451292725E+02
 3.030092239E+01 2.421502380E+02
 3.027495384E+01 2.414970856E+02
 3.017793083E+01 2.387381439E+02
 3.013167763E+01 2.374068604E+02
 3.005755043E+01 2.350254669E+02
 2.999683571E+01 2.330697174E+02
 2.994127846E+01 2.309455109E+02
 2.987633896E+01 2.284573059E+02
 2.984536552E+01 2.270578003E+02
 2.978618813E+01 2.243838501E+02
 2.977275276E+01 2.237742462E+02
 2.976568794E+01 2.234540710E+02
 2.970786667E+01 2.200988922E+02
 2.967373085E+01 2.181216125E+02
 2.964752769E+01 2.160351715E+02
 2.959749222E+01 2.120490875E+02
 2.959225082E+01 2.114337921E+02
 2.957454681E+01 2.093564758E+02
 2.954367638E+01 2.057294159E+02
 2.953449631E+01 2.046522827E+02
 2.950072861E+01 1.984597015E+02
 2.948272514E+01 1.951637878E+02
 2.946269798E+01 1.892230988E+02
 2.944047546E+01 1.826450653E+02
 2.942961693E+01 1.773718262E+02
 2.940651512E+01 1.661773834E+02
 2.940147972E+01 1.622124939E+02
 2.937990189E+01 1.452753296E+02
 2.937826347E+01 1.432477875E+02
 2.936009598E+01 1.208515930E+02
 2.936002731E+01 1.207682114E+02
 2.936002159E+01 1.207607117E+02
 2.936001778E+01 1.207522812E+02
 2.934654999E+01 9.696502686E+01
 2.934609222E+01 9.602832031E+01
 2.933915710E+01 8.171470642E+01
 2.933896255E+01 8.169061279E+01
 2.933701515E+01 8.134681702E+01
 2.933825874E+01 9.267576599E+01
 2.933837700E+01 9.375251770E+01
 2.934329033E+01 1.160255051E+02
 2.934358978E+01 1.173865280E+02
 2.935410309E+01 1.514103241E+02
 2.935410500E+01 1.514146271E+02
 2.935412788E+01 1.514674377E+02
 2.937101364E+01 1.897128448E+02
 2.937338829E+01 1.932600861E+02
 2.939511299E+01 2.256471100E+02
 2.940304184E+01 2.330136719E+02
 2.942715836E+01 2.553826599E+02
 2.944602013E+01 2.655447693E+02
 2.946809006E+01 2.774186707E+02
 2.950692940E+01 2.882827759E+02
 2.951912689E+01 2.916901550E+02
 2.955563354E+01 2.961311646E+02
 2.958184242E+01 2.993189392E+02
 2.959742165E+01 2.998701477E+02
 2.965812683E+01 3.020126953E+02
 2.974222755E+01 3.017290955E+02
 2.975049210E+01 3.017010193E+02
 2.976059341E+01 3.016055908E+02
 2.986186790E+01 3.006399841E+02
 2.991875076E+01 3.002240601E+02
 2.998297501E+01 2.997261353E+02
 3.003331375E+01 2.994311218E+02
 3.011850929E+01 2.988892517E+02
 3.015210342E+01 2.987338867E+02
 3.026248741E+01 2.981567078E+02
 3.027344131E+01 2.981328430E+02
 3.032090569E+01 2.980227966E+02
 3.039784431E+01 2.978459167E+02
 3.041550827E+01 2.977938232E+02
 3.052541161E+01 2.975047913E+02
 3.056248665E+01 2.974524841E+02
 3.066475677E+01 2.969462891E+02
 3.068019485E+01 2.968688660E+02
 3.068749237E+01 2.968353271E+02
 3.079110718E+01 2.962898254E+02
 3.085346794E+01 2.958394165E+02
 3.092538643E+01 2.953381958E+02
 3.103488541E+01 2.949901733E+02
 3.109356117E+01 2.949087524E+02
 3.119023514E+01 2.952080383E+02
 3.126635551E+01 2.955121460E+02
 3.132962799E+01 2.958005676E+02
 3.146596718E+01 2.966893921E+02
 3.150469780E+01 2.969288940E+02
 3.152125740E+01 2.970614624E+02
 3.169542503E+01 2.988341064E+02
 3.175811195E+01 2.994679260E+02
 3.189525604E+01 3.007440796E+02
 3.199795151E+01 3.016481628E+02
 3.210461807E+01 3.022995300E+02
 3.223264313E+01 3.032212219E+02
 3.229946899E+01 3.032944946E+02
 3.242729187E+01 3.035728149E+02
 3.263920593E+01 3.024667358E+02
 3.265124130E+01 3.024185486E+02
 3.266599274E+01 3.023175659E+02
 3.290322495E+01 3.006112671E+02
 3.301191711E+01 3.003414612E+02
 3.312492371E+01 3.000848083E+02
 3.318461227E+01 2.997550659E+02
 3.334676361E+01 2.985189819E+02
 3.345888138E+01 2.976631775E+02
 3.362707138E+01 2.969321594E+02
 3.363572693E+01 2.968451843E+02
 3.381255341E+01 2.947714539E+02
 3.386145782E+01 2.937511597E+02
 3.402185822E+01 2.905758972E+02
 3.409973145E+01 2.882919312E+02
 3.422237778E+01 2.847640076E+02
 3.431996918E+01 2.813401794E+02
 3.441820908E+01 2.778477173E+02
 3.453012848E+01 2.740214844E+02
 3.460566330E+01 2.713192749E+02
 3.471394348E+01 2.680304565E+02
 3.477845001E+01 2.660737915E+02
 3.487134552E+01 2.640497742E+02
 3.497813797E+01 2.620276489E+02
 3.502333450E+01 2.614540405E+02
 3.506048584E+01 2.612487793E+02
 3.515597153E+01 2.605954895E+02
 3.520662308E+01 2.608258057E+02
 3.528764343E+01 2.610884399E+02
 3.533897400E+01 2.617695312E+02
 3.541982651E+01 2.627947998E+02
 3.547722626E+01 2.630036011E+02
 3.555586624E+01 2.632974854E+02
 3.560742569E+01 2.632968445E+02
 3.567860031E+01 2.634330750E+02
 3.573059845E+01 2.597798462E+02
 3.579313660E+01 2.549491272E+02
 3.584933090E+01 2.485476227E+02
 3.589951706E+01 2.433424225E+02
 3.596086502E+01 2.152579346E+02
 3.599113083E+01 2.011766052E+02
