TITLE     = "VTK Data"
VARIABLES = "X"
"Velocity_X"
ZONE T="Slice: Y=4.709 (region 1)"
 STRANDID=340, SOLUTIONTIME=772
 I=227, J=1, K=1, ZONETYPE=Ordered
 DATAPACKING=POINT
 DT=(SINGLE SINGLE )
 3.360160065E+01 1.900227051E+02
 3.360078049E+01 1.915406036E+02
 3.360075760E+01 1.915710602E+02
 3.359313202E+01 1.916027527E+02
 3.344258499E+01 1.914619446E+02
 3.333910370E+01 1.924418793E+02
 3.326839447E+01 1.931925201E+02
 3.319379044E+01 1.928105927E+02
 3.308969116E+01 1.924396362E+02
 3.290881729E+01 1.959005890E+02
 3.288678360E+01 1.963306580E+02
 3.285337830E+01 1.966845398E+02
 3.272246170E+01 1.982964020E+02
 3.261018372E+01 2.007896881E+02
 3.257753754E+01 2.015336761E+02
 3.255869293E+01 2.019120941E+02
 3.239822006E+01 2.051466522E+02
 3.237997437E+01 2.055401611E+02
 3.224780655E+01 2.083729248E+02
 3.224378586E+01 2.084573822E+02
 3.212035751E+01 2.110126495E+02
 3.204210281E+01 2.126012726E+02
 3.193776512E+01 2.147518311E+02
 3.186243248E+01 2.162536621E+02
 3.174985886E+01 2.184459839E+02
 3.166517639E+01 2.200560455E+02
 3.160243225E+01 2.213262482E+02
 3.149889374E+01 2.233879089E+02
 3.141339874E+01 2.249706116E+02
 3.125287437E+01 2.278361053E+02
 3.122526169E+01 2.283091583E+02
 3.118336678E+01 2.290583496E+02
 3.106372833E+01 2.312223358E+02
 3.089964867E+01 2.339628296E+02
 3.086521339E+01 2.345559692E+02
 3.081656456E+01 2.353710480E+02
 3.065039253E+01 2.381352234E+02
 3.053542137E+01 2.398732452E+02
 3.042456818E+01 2.415509033E+02
 3.019376183E+01 2.446692200E+02
 3.017794418E+01 2.448841858E+02
 3.017075157E+01 2.449745331E+02
 2.990888214E+01 2.484644012E+02
 2.982523918E+01 2.495391388E+02
 2.966314125E+01 2.514474335E+02
 2.961366463E+01 2.520531616E+02
 2.939695740E+01 2.546024933E+02
 2.939377594E+01 2.546400757E+02
 2.938920021E+01 2.546871033E+02
 2.916609573E+01 2.570361023E+02
 2.903819847E+01 2.583805847E+02
 2.896514320E+01 2.591678772E+02
 2.889647865E+01 2.598880310E+02
 2.878948021E+01 2.610198975E+02
 2.866412735E+01 2.622873840E+02
 2.863421631E+01 2.625826721E+02
 2.856518555E+01 2.632830505E+02
 2.846282959E+01 2.643318481E+02
 2.842507362E+01 2.647685852E+02
 2.830936623E+01 2.661148071E+02
 2.825027084E+01 2.667807312E+02
 2.816505623E+01 2.676780701E+02
 2.810860252E+01 2.682442627E+02
 2.799085236E+01 2.695368958E+02
 2.794785118E+01 2.700076904E+02
 2.792445183E+01 2.702682495E+02
 2.776716423E+01 2.721291504E+02
 2.774550438E+01 2.723689575E+02
 2.759685516E+01 2.740567932E+02
 2.753113365E+01 2.748290100E+02
 2.743218994E+01 2.760392761E+02
 2.735986519E+01 2.769171143E+02
 2.725121117E+01 2.785541382E+02
 2.719140244E+01 2.796101074E+02
 2.708402252E+01 2.818172913E+02
 2.708014297E+01 2.818729553E+02
 2.697724152E+01 2.829756470E+02
 2.685878944E+01 2.843189392E+02
 2.675853920E+01 2.853325500E+02
 2.664992523E+01 2.862969360E+02
 2.646494484E+01 2.882477722E+02
 2.634963036E+01 2.892080078E+02
 2.607631302E+01 2.911111450E+02
 2.602994537E+01 2.908156128E+02
 2.577163696E+01 2.879189148E+02
 2.555854225E+01 2.840125427E+02
 2.537711143E+01 2.806289978E+02
 2.516165161E+01 2.760177307E+02
 2.499523926E+01 2.724495544E+02
 2.487274551E+01 2.686220398E+02
 2.467627335E+01 2.636836548E+02
 2.451879311E+01 2.587480774E+02
 2.439475441E+01 2.545384216E+02
 2.422383881E+01 2.483614349E+02
 2.412386513E+01 2.448437195E+02
 2.393019485E+01 2.369635773E+02
 2.385906982E+01 2.342036133E+02
 2.372574043E+01 2.280522156E+02
 2.362833023E+01 2.235732117E+02
 2.352938080E+01 2.180941162E+02
 2.342344475E+01 2.124367523E+02
 2.336062622E+01 2.080662689E+02
 2.325061226E+01 2.003068695E+02
 2.312657928E+01 1.893412018E+02
 2.310577202E+01 1.874766541E+02
 2.305698967E+01 1.818566742E+02
 2.298561859E+01 1.736655426E+02
 2.296353531E+01 1.702911377E+02
 2.288674927E+01 1.583241272E+02
 2.284684181E+01 1.497402649E+02
 2.280663681E+01 1.408726654E+02
 2.276288414E+01 1.273423691E+02
 2.274347687E+01 1.211811981E+02
 2.270435333E+01 1.040188904E+02
 2.269614410E+01 1.003376160E+02
 2.266703415E+01 8.400240326E+01
 2.266418076E+01 8.237001801E+01
 2.264809036E+01 7.533893585E+01
 2.264729118E+01 7.498390961E+01
 2.264391708E+01 8.487456512E+01
 2.264377975E+01 8.527898407E+01
 2.264404678E+01 8.631596375E+01
 2.265074539E+01 1.114821243E+02
 2.265187073E+01 1.137942200E+02
 2.267047119E+01 1.509717407E+02
 2.267432404E+01 1.561631775E+02
 2.270579529E+01 1.971362762E+02
 2.271658707E+01 2.063065186E+02
 2.275794601E+01 2.398910065E+02
 2.278320694E+01 2.525194397E+02
 2.282767677E+01 2.735340271E+02
 2.287984085E+01 2.876520691E+02
 2.291606712E+01 2.968210754E+02
 2.301548195E+01 3.105646667E+02
 2.302473831E+01 3.117635193E+02
 2.305070877E+01 3.136037292E+02
 2.315635872E+01 3.211470337E+02
 2.320760155E+01 3.232987366E+02
 2.331349373E+01 3.277379150E+02
 2.348303413E+01 3.322826843E+02
 2.349904251E+01 3.326767883E+02
 2.352282906E+01 3.329121094E+02
 2.371670723E+01 3.348028870E+02
 2.393008232E+01 3.352473450E+02
 2.397461319E+01 3.354331970E+02
 2.399366760E+01 3.354668884E+02
 2.425223160E+01 3.359017639E+02
 2.429755020E+01 3.358122253E+02
 2.452992439E+01 3.350949402E+02
 2.463125992E+01 3.345830688E+02
 2.481937599E+01 3.336571960E+02
 2.499791718E+01 3.326419067E+02
 2.509125710E+01 3.322266846E+02
 2.520615578E+01 3.309637451E+02
 2.538943100E+01 3.281884155E+02
 2.571244431E+01 3.154111633E+02
 2.578144646E+01 3.120743103E+02
 2.593013191E+01 3.015778198E+02
 2.614784431E+01 2.862994385E+02
 2.625197029E+01 2.803079224E+02
 2.646942329E+01 2.710203247E+02
 2.671329880E+01 2.690594482E+02
 2.676115036E+01 2.690668945E+02
 2.682112312E+01 2.699273987E+02
 2.698860931E+01 2.722139893E+02
 2.716799545E+01 2.748412476E+02
 2.722300339E+01 2.755803833E+02
 2.741753006E+01 2.773824463E+02
 2.746292877E+01 2.775700378E+02
 2.762881470E+01 2.777284851E+02
 2.774374199E+01 2.777360840E+02
 2.790272522E+01 2.777810364E+02
 2.798826599E+01 2.777090149E+02
 2.814343643E+01 2.770779419E+02
 2.825369453E+01 2.766764221E+02
 2.845498466E+01 2.755531921E+02
 2.851391029E+01 2.752321472E+02
 2.859534454E+01 2.747327881E+02
 2.879883766E+01 2.735942078E+02
 2.891818619E+01 2.730287476E+02
 2.912073708E+01 2.720151367E+02
 2.945699310E+01 2.703734436E+02
 2.946584320E+01 2.703319092E+02
 2.947705841E+01 2.702700500E+02
 2.981744576E+01 2.684575500E+02
 3.006452751E+01 2.666688843E+02
 3.007021141E+01 2.666298218E+02
 3.008261871E+01 2.665126953E+02
 3.030258560E+01 2.644779663E+02
 3.045452881E+01 2.626343689E+02
 3.053558540E+01 2.616777039E+02
 3.056918907E+01 2.612046509E+02
 3.074118996E+01 2.587468567E+02
 3.079118156E+01 2.580579224E+02
 3.080244255E+01 2.578858643E+02
 3.100328255E+01 2.548549652E+02
 3.103378105E+01 2.544053192E+02
 3.122391129E+01 2.515912628E+02
 3.124225044E+01 2.513262177E+02
 3.143693161E+01 2.485580750E+02
 3.144152641E+01 2.484972839E+02
 3.146115685E+01 2.482281036E+02
 3.162329102E+01 2.460314331E+02
 3.166872406E+01 2.454294281E+02
 3.180712509E+01 2.437486572E+02
 3.191427803E+01 2.424568787E+02
 3.196031761E+01 2.419073486E+02
 3.201214218E+01 2.413377991E+02
 3.208925247E+01 2.404778748E+02
 3.222760391E+01 2.388806458E+02
 3.223695374E+01 2.387734375E+02
 3.224322891E+01 2.387034302E+02
 3.240567017E+01 2.368991547E+02
 3.241780853E+01 2.367596893E+02
 3.255464554E+01 2.350848389E+02
 3.259160995E+01 2.345782471E+02
 3.271785355E+01 2.327261810E+02
 3.283899307E+01 2.307984772E+02
 3.288967514E+01 2.300518646E+02
 3.306513596E+01 2.265037384E+02
 3.307185364E+01 2.263704681E+02
 3.308124924E+01 2.260754089E+02
 3.326300430E+01 2.203614197E+02
 3.342966843E+01 2.125721741E+02
 3.344023132E+01 2.121599884E+02
 3.345388412E+01 2.103220367E+02
 3.360160065E+01 1.900227051E+02
