TITLE     = "VTK Data"
VARIABLES = "X"
"Velocity_X"
ZONE T="Slice: Y=20.458 (region 1)"
 STRANDID=437, SOLUTIONTIME=772
 I=189, J=1, K=1, ZONETYPE=Ordered
 DATAPACKING=POINT
 DT=(SINGLE SINGLE )
 3.879216766E+01 2.074596252E+02
 3.879221725E+01 2.038802490E+02
 3.879249191E+01 1.881992645E+02
 3.870964813E+01 1.740798492E+02
 3.869689178E+01 1.724751129E+02
 3.859167480E+01 1.711937561E+02
 3.858578491E+01 1.711152039E+02
 3.846937943E+01 1.703330078E+02
 3.846657181E+01 1.703135529E+02
 3.834370804E+01 1.736836395E+02
 3.833943558E+01 1.738054047E+02
 3.822879791E+01 1.770566406E+02
 3.821137619E+01 1.775361633E+02
 3.810363388E+01 1.816520844E+02
 3.807631683E+01 1.827130737E+02
 3.797117996E+01 1.868002625E+02
 3.793353653E+01 1.882741699E+02
 3.782019043E+01 1.930734558E+02
 3.776640320E+01 1.953383179E+02
 3.763533783E+01 2.006874084E+02
 3.762533188E+01 2.011069946E+02
 3.751024628E+01 2.059395447E+02
 3.740782928E+01 2.100715637E+02
 3.734164047E+01 2.127087860E+02
 3.719065094E+01 2.186885986E+02
 3.716298676E+01 2.197777405E+02
 3.715272141E+01 2.201791992E+02
 3.698828888E+01 2.263042145E+02
 3.694255447E+01 2.279120789E+02
 3.683992386E+01 2.312464447E+02
 3.670542145E+01 2.350151215E+02
 3.664968872E+01 2.366620331E+02
 3.658958435E+01 2.381976776E+02
 3.645824432E+01 2.414704437E+02
 3.637748718E+01 2.428686066E+02
 3.625237656E+01 2.452578430E+02
 3.611732864E+01 2.470162201E+02
 3.599248123E+01 2.492600098E+02
 3.592178345E+01 2.501406250E+02
 3.579307556E+01 2.512699738E+02
 3.573733139E+01 2.515410004E+02
 3.561259079E+01 2.520912933E+02
 3.555031967E+01 2.522092285E+02
 3.543159485E+01 2.526407776E+02
 3.538307190E+01 2.526689758E+02
 3.527595520E+01 2.527608948E+02
 3.525000000E+01 2.526923676E+02
 3.515683746E+01 2.524528351E+02
 3.509146881E+01 2.521705170E+02
 3.501390839E+01 2.517988434E+02
 3.497003555E+01 2.514163208E+02
 3.484939194E+01 2.505310211E+02
 3.483956528E+01 2.504534912E+02
 3.481166077E+01 2.502364044E+02
 3.471947479E+01 2.495411682E+02
 3.468912125E+01 2.492264862E+02
 3.461524200E+01 2.482312469E+02
 3.456527328E+01 2.475414886E+02
 3.450020981E+01 2.466641083E+02
 3.441728973E+01 2.456616821E+02
 3.439395142E+01 2.453095093E+02
 3.430705643E+01 2.438624725E+02
 3.429020691E+01 2.435805054E+02
 3.428554535E+01 2.435065460E+02
 3.418263245E+01 2.415031586E+02
 3.416088104E+01 2.410855255E+02
 3.407713318E+01 2.391169586E+02
 3.404290771E+01 2.383069153E+02
 3.397558975E+01 2.362955780E+02
 3.393697739E+01 2.351414490E+02
 3.389799500E+01 2.337182159E+02
 3.384057999E+01 2.316090393E+02
 3.383514023E+01 2.313448181E+02
 3.382242584E+01 2.307244110E+02
 3.377902222E+01 2.286134491E+02
 3.376039124E+01 2.277044067E+02
 3.372755051E+01 2.253654175E+02
 3.369383240E+01 2.229610748E+02
 3.368042755E+01 2.214440002E+02
 3.363877487E+01 2.167360535E+02
 3.363791275E+01 2.165726624E+02
 3.363428497E+01 2.158877258E+02
 3.360130310E+01 2.096605988E+02
 3.359343338E+01 2.081808624E+02
 3.356907654E+01 2.002854767E+02
 3.355642319E+01 1.962041016E+02
 3.354113388E+01 1.877227936E+02
 3.352664566E+01 1.797253723E+02
 3.351747513E+01 1.711850281E+02
 3.350327682E+01 1.580229797E+02
 3.349811172E+01 1.502518616E+02
 3.348578262E+01 1.317795715E+02
 3.347612000E+01 1.101213074E+02
 3.347386169E+01 1.050433197E+02
 3.346825790E+01 8.895039368E+01
 3.346722794E+01 8.596884918E+01
 3.346546173E+01 8.214460754E+01
 3.346515274E+01 8.147619629E+01
 3.346530914E+01 8.288339233E+01
 3.346618652E+01 9.085291290E+01
 3.346693802E+01 9.452159882E+01
 3.347069550E+01 1.127606506E+02
 3.347261810E+01 1.196491776E+02
 3.347995377E+01 1.458734894E+02
 3.348414993E+01 1.564644012E+02
 3.349488068E+01 1.834708862E+02
 3.350329590E+01 1.973710480E+02
 3.351608276E+01 2.184308929E+02
 3.353196716E+01 2.345112610E+02
 3.354417038E+01 2.468415222E+02
 3.357280350E+01 2.632973022E+02
 3.357991409E+01 2.673755798E+02
 3.360768127E+01 2.754866638E+02
 3.362435913E+01 2.803654480E+02
 3.363183212E+01 2.813257446E+02
 3.367885208E+01 2.873509521E+02
 3.372136307E+01 2.893031006E+02
 3.374502182E+01 2.903849792E+02
 3.378497314E+01 2.908545532E+02
 3.382503891E+01 2.913322754E+02
 3.387229538E+01 2.915716858E+02
 3.392144012E+01 2.918186646E+02
 3.394439316E+01 2.919275513E+02
 3.402722549E+01 2.923872681E+02
 3.404281616E+01 2.924521790E+02
 3.414508438E+01 2.928677368E+02
 3.414555359E+01 2.928693237E+02
 3.414817429E+01 2.928764648E+02
 3.425558472E+01 2.931717224E+02
 3.427604675E+01 2.932265625E+02
 3.436985397E+01 2.935807190E+02
 3.440857697E+01 2.937650757E+02
 3.449035263E+01 2.943411865E+02
 3.453844833E+01 2.947364197E+02
 3.462847900E+01 2.954467773E+02
 3.464374542E+01 2.955502625E+02
 3.467787933E+01 2.957984314E+02
 3.475214386E+01 2.963829041E+02
 3.478293610E+01 2.967297668E+02
 3.485817337E+01 2.976029968E+02
 3.495034027E+01 2.986933899E+02
 3.496074295E+01 2.988121643E+02
 3.496976471E+01 2.989064331E+02
 3.508617401E+01 3.001202087E+02
 3.517772675E+01 3.010888672E+02
 3.523126602E+01 3.015318909E+02
 3.538554382E+01 3.026585388E+02
 3.539882660E+01 3.027224426E+02
 3.558269119E+01 3.036104736E+02
 3.560517502E+01 3.037685242E+02
 3.573993683E+01 3.049188232E+02
 3.583393097E+01 3.053824463E+02
 3.588493729E+01 3.056277771E+02
 3.591981888E+01 3.057142639E+02
 3.605894089E+01 3.058548279E+02
 3.620626831E+01 3.056331787E+02
 3.628624344E+01 3.055366211E+02
 3.637559891E+01 3.053233337E+02
 3.651702118E+01 3.052588196E+02
 3.661952972E+01 3.048598633E+02
 3.672817230E+01 3.040429688E+02
 3.689490891E+01 3.022317505E+02
 3.693478012E+01 3.016098633E+02
 3.701677322E+01 3.001952820E+02
 3.712654495E+01 2.984844666E+02
 3.717248917E+01 2.976306152E+02
 3.732297516E+01 2.936802368E+02
 3.736093140E+01 2.925130615E+02
 3.747193527E+01 2.883295898E+02
 3.759547424E+01 2.834333801E+02
 3.762720108E+01 2.821769714E+02
 3.777680969E+01 2.761099548E+02
 3.778139877E+01 2.759569397E+02
 3.794067383E+01 2.709293213E+02
 3.795409775E+01 2.706892090E+02
 3.798340225E+01 2.701578369E+02
 3.809008408E+01 2.682304688E+02
 3.818215179E+01 2.689192200E+02
 3.821630859E+01 2.689411926E+02
 3.832281113E+01 2.700825500E+02
 3.834831238E+01 2.703543396E+02
 3.845703506E+01 2.723807983E+02
 3.847645569E+01 2.727551575E+02
 3.857992935E+01 2.671684875E+02
 3.859259033E+01 2.664743958E+02
 3.869841766E+01 2.529769592E+02
 3.870025253E+01 2.527441711E+02
 3.870936584E+01 2.482550354E+02
 3.879216766E+01 2.074596252E+02
